/*--------------------------------*- C++ -*----------------------------------*\
  =========                 |
  \\      /  F ield         | OpenFOAM: The Open Source CFD Toolbox
   \\    /   O peration     | Website:  https://openfoam.org
    \\  /    A nd           | Version:  7
     \\/     M anipulation  |
\*---------------------------------------------------------------------------*/
FoamFile
{
    version     2.0;
    format      ascii;
    class       volScalarField;
    location    "1000";
    object      p;
}
// * * * * * * * * * * * * * * * * * * * * * * * * * * * * * * * * * * * * * //

dimensions      [0 2 -2 0 0 0 0];

internalField   nonuniform List<scalar> 
46980
(
97.505
97.5053
97.506
97.5068
97.5074
97.5079
97.5084
97.5089
97.5094
97.5099
97.5104
97.5108
97.5111
97.5114
97.5116
97.5118
97.5119
97.5121
97.5123
97.5126
97.5129
97.5133
97.5138
97.5143
97.5148
97.5153
97.5158
97.5163
97.5167
97.517
97.5171
97.5172
97.5171
97.5169
97.5166
97.5162
97.5157
97.5152
97.5147
97.5143
97.5139
97.5137
97.5135
97.5135
97.5135
97.5137
97.514
97.5143
97.5148
97.5152
97.5155
97.5158
97.5159
97.5159
97.5157
97.5155
97.5151
97.5147
97.5143
97.5138
97.5133
97.5127
97.5121
97.5116
97.511
97.5106
97.5102
97.5099
97.5097
97.5095
97.5094
97.5093
97.5092
97.5091
97.509
97.5088
97.5086
97.5083
97.508
97.5077
97.5073
97.5069
97.5065
97.5059
97.5053
97.5047
97.5044
97.5056
97.5057
97.5068
97.508
97.5087
97.5093
97.5098
97.5104
97.511
97.5116
97.5122
97.5127
97.5131
97.5134
97.5136
97.5137
97.5139
97.5141
97.5143
97.5146
97.515
97.5154
97.516
97.5165
97.5172
97.5178
97.5184
97.519
97.5195
97.5198
97.52
97.5201
97.52
97.5197
97.5193
97.5188
97.5182
97.5176
97.517
97.5165
97.516
97.5157
97.5155
97.5154
97.5155
97.5157
97.5161
97.5166
97.5171
97.5176
97.5181
97.5184
97.5186
97.5186
97.5184
97.518
97.5176
97.5171
97.5166
97.516
97.5154
97.5147
97.514
97.5133
97.5126
97.5121
97.5116
97.5113
97.511
97.5108
97.5107
97.5107
97.5106
97.5106
97.5105
97.5103
97.5101
97.5097
97.5093
97.5089
97.5085
97.508
97.5076
97.507
97.5059
97.505
97.5049
97.5064
97.5067
97.5087
97.5099
97.5104
97.5109
97.5114
97.5119
97.5125
97.513
97.5134
97.5138
97.5141
97.5143
97.5144
97.5145
97.5146
97.5148
97.515
97.5153
97.5157
97.5162
97.5167
97.5174
97.5181
97.5188
97.5195
97.5202
97.5207
97.5211
97.5213
97.5214
97.5212
97.5209
97.5205
97.5199
97.5192
97.5185
97.5179
97.5173
97.5168
97.5164
97.5162
97.5162
97.5163
97.5165
97.5169
97.5174
97.518
97.5186
97.5192
97.5196
97.5198
97.5199
97.5197
97.5193
97.5188
97.5183
97.5177
97.5171
97.5164
97.5156
97.5148
97.514
97.5133
97.5128
97.5123
97.5119
97.5117
97.5115
97.5114
97.5113
97.5113
97.5113
97.5113
97.5112
97.511
97.5108
97.5105
97.5102
97.5098
97.5094
97.509
97.5086
97.5075
97.5058
97.5056
97.5072
97.5076
97.5102
97.5113
97.5117
97.5123
97.513
97.5136
97.5142
97.5146
97.515
97.5153
97.5154
97.5155
97.5155
97.5155
97.5156
97.5157
97.5159
97.5162
97.5166
97.5171
97.5177
97.5184
97.5193
97.5201
97.521
97.5218
97.5225
97.523
97.5232
97.5233
97.5231
97.5227
97.5221
97.5214
97.5205
97.5197
97.5189
97.5183
97.5177
97.5173
97.5171
97.517
97.5172
97.5174
97.5179
97.5185
97.5193
97.52
97.5208
97.5214
97.5217
97.5218
97.5217
97.5213
97.5207
97.52
97.5193
97.5185
97.5177
97.5168
97.5158
97.515
97.5142
97.5136
97.5132
97.5128
97.5126
97.5124
97.5123
97.5123
97.5123
97.5124
97.5124
97.5124
97.5123
97.5122
97.5119
97.5116
97.5111
97.5106
97.5101
97.5097
97.5088
97.5066
97.5063
97.5078
97.5083
97.5114
97.5124
97.5128
97.5137
97.5147
97.5157
97.5166
97.5172
97.5177
97.518
97.5181
97.518
97.5178
97.5176
97.5175
97.5176
97.5177
97.518
97.5184
97.519
97.5198
97.5207
97.5217
97.5229
97.5241
97.5253
97.5263
97.527
97.5274
97.5275
97.5272
97.5266
97.5257
97.5246
97.5234
97.5223
97.5212
97.5204
97.5197
97.5192
97.519
97.5189
97.5191
97.5195
97.5201
97.5209
97.5219
97.5232
97.5244
97.5254
97.5261
97.5264
97.5263
97.5257
97.5247
97.5234
97.5225
97.5216
97.5205
97.5192
97.5179
97.517
97.5162
97.5155
97.515
97.5147
97.5144
97.5143
97.5143
97.5143
97.5143
97.5145
97.5146
97.5147
97.5146
97.5144
97.514
97.5134
97.5126
97.5118
97.5111
97.5107
97.5099
97.5073
97.5068
97.5083
97.5089
97.5123
97.5132
97.5136
97.5147
97.5161
97.5176
97.5191
97.5205
97.5216
97.5224
97.5228
97.5228
97.5225
97.5222
97.522
97.5219
97.522
97.5223
97.5227
97.5235
97.5244
97.5256
97.5274
97.5294
97.5324
97.5353
97.5377
97.5394
97.5404
97.5405
97.5398
97.5384
97.5363
97.5336
97.5305
97.5282
97.5264
97.5252
97.5244
97.5238
97.5235
97.5235
97.5238
97.5244
97.5253
97.5266
97.5286
97.5311
97.5338
97.5361
97.538
97.5394
97.5403
97.541
97.5415
97.5407
97.5373
97.5341
97.5308
97.5275
97.5238
97.5211
97.5198
97.519
97.5185
97.5182
97.5179
97.5179
97.5181
97.5181
97.5185
97.5188
97.5188
97.5186
97.5181
97.5173
97.5163
97.5151
97.5139
97.5127
97.5118
97.5114
97.5107
97.5077
97.5073
97.5085
97.5092
97.5128
97.5136
97.5139
97.5151
97.5168
97.5189
97.5211
97.5234
97.5258
97.5282
97.5306
97.5333
97.5371
97.5416
97.545
97.5457
97.5455
97.5457
97.5463
97.5474
97.5494
97.5527
97.5582
97.5625
97.5648
97.5674
97.5698
97.5715
97.5724
97.5726
97.572
97.5707
97.5686
97.5662
97.5638
97.5605
97.5553
97.5513
97.5494
97.5484
97.5481
97.5483
97.5492
97.5506
97.553
97.5555
97.5561
97.5556
97.5559
97.5565
97.5574
97.5587
97.5608
97.5643
97.5707
97.5768
97.5689
97.5611
97.5558
97.5526
97.5487
97.5408
97.5364
97.5345
97.5342
97.5344
97.5351
97.5364
97.5378
97.5393
97.5382
97.5324
97.5279
97.5249
97.5225
97.5203
97.5183
97.5163
97.5146
97.5131
97.5121
97.5118
97.5111
97.508
97.5075
97.5085
97.5091
97.5128
97.5136
97.5139
97.515
97.5168
97.5189
97.5214
97.5241
97.5272
97.5309
97.536
97.5444
97.5608
97.5847
97.5971
97.5954
97.5914
97.5904
97.5909
97.5937
97.6011
97.6136
97.6292
97.6316
97.6091
97.5957
97.5895
97.5862
97.5847
97.5845
97.5858
97.5886
97.5936
97.6038
97.6242
97.633
97.6199
97.6055
97.597
97.5933
97.593
97.5947
97.5975
97.6033
97.6155
97.6212
97.6037
97.5807
97.5652
97.5568
97.5518
97.5482
97.5456
97.5437
97.5428
97.543
97.543
97.5447
97.5487
97.5627
97.592
97.6002
97.5914
97.5811
97.5784
97.579
97.5817
97.5848
97.5903
97.6024
97.588
97.5543
97.5368
97.5289
97.5244
97.5213
97.5187
97.5165
97.5146
97.5131
97.5121
97.5118
97.5111
97.508
97.5075
97.5082
97.5088
97.5122
97.5131
97.5134
97.5144
97.5159
97.5177
97.5197
97.5219
97.5244
97.5274
97.5316
97.5395
97.5613
97.6021
97.6122
97.59
97.579
97.5778
97.5794
97.5866
97.5989
97.5988
97.5775
97.562
97.552
97.5473
97.5452
97.5442
97.5438
97.5438
97.5444
97.5455
97.5474
97.5513
97.5593
97.5696
97.5872
97.5961
97.5892
97.5785
97.5763
97.5788
97.5829
97.595
97.617
97.6147
97.5743
97.5498
97.5403
97.5355
97.5323
97.5295
97.5271
97.525
97.5232
97.5221
97.5224
97.5234
97.5252
97.5301
97.5437
97.5622
97.5856
97.5816
97.5707
97.5688
97.5708
97.5738
97.5826
97.5998
97.5949
97.5495
97.5313
97.5254
97.5219
97.5194
97.5173
97.5155
97.5139
97.5126
97.5117
97.5114
97.5107
97.5077
97.5072
97.5076
97.5081
97.5112
97.5122
97.5125
97.5133
97.5144
97.5157
97.517
97.5185
97.5202
97.5221
97.5244
97.528
97.5366
97.5579
97.5894
97.5879
97.5701
97.5646
97.5718
97.5831
97.578
97.551
97.5324
97.526
97.5242
97.5238
97.5239
97.5241
97.5243
97.5245
97.5246
97.5246
97.5248
97.5252
97.5266
97.5303
97.541
97.5584
97.5771
97.5707
97.5612
97.5602
97.5671
97.5886
97.5878
97.5568
97.5359
97.5286
97.5259
97.524
97.5225
97.5208
97.5193
97.518
97.5169
97.5162
97.5158
97.5156
97.5156
97.5161
97.5187
97.5282
97.549
97.571
97.5598
97.5522
97.5528
97.5609
97.577
97.574
97.5444
97.5288
97.523
97.5202
97.5182
97.5165
97.5151
97.5138
97.5127
97.5117
97.511
97.5107
97.5099
97.5071
97.5067
97.5068
97.5072
97.5098
97.5109
97.5113
97.5119
97.5126
97.5134
97.5143
97.5155
97.5169
97.5186
97.5201
97.5218
97.5243
97.5305
97.548
97.5775
97.5849
97.5774
97.5842
97.5784
97.5447
97.5241
97.519
97.5183
97.5182
97.5183
97.5187
97.5189
97.5192
97.5193
97.5194
97.5194
97.5195
97.5196
97.52
97.5206
97.5226
97.5312
97.554
97.5788
97.5715
97.5652
97.5777
97.5797
97.5484
97.529
97.5238
97.5224
97.5215
97.5205
97.5196
97.5177
97.5163
97.5152
97.5144
97.5137
97.5133
97.5131
97.513
97.5128
97.5132
97.5161
97.5283
97.5575
97.568
97.5583
97.5566
97.571
97.5607
97.5358
97.5237
97.5204
97.5184
97.5168
97.5155
97.5141
97.5129
97.5119
97.5111
97.5105
97.5099
97.5096
97.5087
97.5063
97.506
97.5058
97.506
97.5081
97.5095
97.5099
97.5103
97.5108
97.5115
97.5123
97.5135
97.5152
97.5176
97.519
97.5199
97.5207
97.5226
97.5283
97.5467
97.5804
97.5998
97.5848
97.5463
97.5229
97.5163
97.5151
97.5161
97.516
97.5161
97.5164
97.5166
97.5168
97.517
97.5171
97.5172
97.5173
97.5177
97.5184
97.5182
97.518
97.5202
97.5311
97.5602
97.5874
97.5906
97.5885
97.5512
97.5284
97.5222
97.5209
97.5212
97.5211
97.5204
97.5189
97.5154
97.5138
97.5128
97.512
97.5115
97.5111
97.5109
97.5111
97.5116
97.5112
97.5123
97.5166
97.5353
97.5788
97.5765
97.5757
97.5589
97.5336
97.5218
97.519
97.5178
97.5168
97.5158
97.5146
97.5126
97.5113
97.5103
97.5096
97.5091
97.5087
97.5083
97.5072
97.5054
97.5052
97.5048
97.5048
97.5059
97.5073
97.5079
97.5083
97.5088
97.5093
97.5101
97.5113
97.5135
97.5182
97.5204
97.521
97.5205
97.5204
97.5227
97.5302
97.548
97.561
97.5489
97.5269
97.5172
97.514
97.5131
97.5137
97.5136
97.5137
97.514
97.5143
97.5145
97.5146
97.5147
97.5148
97.515
97.5155
97.5173
97.5185
97.5169
97.5173
97.5214
97.5375
97.5755
97.5982
97.5665
97.534
97.523
97.5203
97.5204
97.5224
97.5206
97.5168
97.5137
97.5115
97.5104
97.5096
97.509
97.5086
97.5082
97.5081
97.5085
97.5099
97.51
97.5109
97.5135
97.5219
97.5481
97.5853
97.5636
97.5344
97.5221
97.5186
97.5176
97.5176
97.5174
97.5168
97.515
97.5112
97.5094
97.5084
97.5078
97.5074
97.507
97.5065
97.5052
97.5043
97.5043
97.5039
97.5039
97.5044
97.5051
97.5056
97.506
97.5064
97.5069
97.5076
97.5085
97.5099
97.5128
97.5167
97.5209
97.5213
97.5198
97.5205
97.5238
97.5302
97.5353
97.5296
97.5208
97.5154
97.5128
97.5116
97.5108
97.5098
97.5097
97.5099
97.5101
97.5102
97.5104
97.5105
97.5106
97.5108
97.5113
97.513
97.5164
97.516
97.5162
97.5187
97.5264
97.5452
97.5605
97.543
97.5274
97.5211
97.5193
97.5198
97.5203
97.5155
97.5124
97.5106
97.5094
97.5086
97.508
97.5074
97.507
97.5067
97.5066
97.507
97.5082
97.5091
97.5102
97.5124
97.5175
97.5283
97.544
97.5365
97.524
97.5189
97.5173
97.5176
97.519
97.5173
97.5136
97.5106
97.5083
97.5071
97.5064
97.5058
97.5054
97.5051
97.5046
97.504
97.5035
97.5036
97.5032
97.5032
97.5036
97.504
97.5044
97.5048
97.5052
97.5057
97.5063
97.5071
97.5081
97.5097
97.5123
97.5171
97.5202
97.5188
97.519
97.5213
97.5249
97.5273
97.5245
97.5191
97.5148
97.5123
97.5109
97.5097
97.5083
97.5078
97.5078
97.5079
97.508
97.5081
97.5083
97.5084
97.5087
97.5091
97.5104
97.5132
97.5144
97.5153
97.5176
97.5225
97.5309
97.5371
97.5316
97.5242
97.5199
97.518
97.5176
97.5165
97.5123
97.5101
97.509
97.5082
97.5076
97.5071
97.5066
97.5062
97.506
97.506
97.5064
97.5077
97.5088
97.5099
97.512
97.5158
97.5216
97.5259
97.5238
97.5196
97.5171
97.5163
97.5173
97.5172
97.5128
97.5098
97.5079
97.5067
97.5059
97.5053
97.5048
97.5044
97.504
97.5037
97.5033
97.503
97.503
97.5027
97.5027
97.503
97.5034
97.5037
97.5041
97.5045
97.5049
97.5055
97.5061
97.5069
97.508
97.5096
97.5129
97.5179
97.5175
97.5177
97.5196
97.5223
97.5238
97.522
97.5181
97.5144
97.512
97.5105
97.5092
97.5076
97.507
97.5068
97.5068
97.5069
97.507
97.5072
97.5073
97.5076
97.5081
97.5093
97.5118
97.5134
97.5147
97.5171
97.5211
97.5264
97.5297
97.5273
97.5226
97.5191
97.5169
97.5159
97.5143
97.5108
97.5089
97.508
97.5074
97.5069
97.5065
97.506
97.5057
97.5056
97.5056
97.5061
97.5075
97.5086
97.5098
97.5119
97.5151
97.5191
97.5214
97.5201
97.5175
97.5157
97.5153
97.5163
97.5137
97.5098
97.5078
97.5066
97.5058
97.5051
97.5046
97.5041
97.5038
97.5034
97.5031
97.5028
97.5025
97.5025
97.5023
97.5024
97.5026
97.5029
97.5033
97.5036
97.504
97.5044
97.5049
97.5054
97.506
97.5068
97.508
97.51
97.5135
97.515
97.516
97.518
97.5202
97.5213
97.5201
97.5171
97.5141
97.5117
97.5102
97.5088
97.5071
97.5064
97.5062
97.5062
97.5063
97.5064
97.5065
97.5066
97.5069
97.5074
97.5086
97.511
97.5127
97.5142
97.5166
97.52
97.5237
97.5258
97.5244
97.5212
97.5182
97.516
97.5147
97.5129
97.5097
97.508
97.5073
97.5068
97.5064
97.506
97.5057
97.5054
97.5052
97.5053
97.5059
97.5074
97.5085
97.5098
97.5118
97.5145
97.5173
97.5187
97.5179
97.516
97.5144
97.5141
97.5144
97.5105
97.5078
97.5065
97.5057
97.505
97.5045
97.5041
97.5037
97.5033
97.503
97.5027
97.5024
97.5022
97.5022
97.502
97.502
97.5023
97.5026
97.5029
97.5032
97.5036
97.5039
97.5044
97.5048
97.5053
97.506
97.5069
97.5084
97.5112
97.5131
97.5145
97.5164
97.5182
97.5191
97.5183
97.5161
97.5136
97.5114
97.5099
97.5085
97.5067
97.506
97.5058
97.5058
97.5058
97.5059
97.506
97.5061
97.5064
97.5068
97.508
97.5104
97.5122
97.5138
97.5161
97.5189
97.5215
97.5228
97.522
97.5198
97.5173
97.5151
97.5136
97.5118
97.5088
97.5073
97.5066
97.5062
97.5059
97.5056
97.5053
97.5051
97.505
97.5051
97.5057
97.5073
97.5084
97.5097
97.5115
97.5138
97.5158
97.5167
97.516
97.5145
97.513
97.5121
97.5108
97.508
97.5065
97.5056
97.5049
97.5044
97.504
97.5036
97.5033
97.503
97.5027
97.5024
97.5021
97.5019
97.5019
97.5018
97.5018
97.502
97.5023
97.5026
97.5029
97.5032
97.5035
97.5039
97.5043
97.5047
97.5053
97.506
97.5073
97.5097
97.5117
97.5131
97.5149
97.5163
97.517
97.5165
97.515
97.513
97.5111
97.5096
97.5082
97.5064
97.5056
97.5054
97.5054
97.5055
97.5055
97.5056
97.5057
97.5059
97.5064
97.5076
97.5099
97.5117
97.5133
97.5154
97.5176
97.5194
97.5202
97.5198
97.5183
97.5163
97.5143
97.5128
97.5109
97.5081
97.5067
97.506
97.5057
97.5055
97.5052
97.505
97.5048
97.5047
97.5049
97.5056
97.5071
97.5083
97.5095
97.5112
97.5129
97.5143
97.5149
97.5144
97.5132
97.5118
97.5106
97.509
97.5068
97.5056
97.5049
97.5044
97.504
97.5036
97.5033
97.503
97.5027
97.5024
97.5021
97.5019
97.5017
97.5017
97.5016
97.5016
97.5018
97.502
97.5023
97.5026
97.5029
97.5032
97.5035
97.5038
97.5042
97.5047
97.5053
97.5065
97.5087
97.5106
97.512
97.5135
97.5146
97.515
97.5147
97.5137
97.5123
97.5106
97.5093
97.5078
97.5061
97.5053
97.505
97.505
97.5051
97.5051
97.5052
97.5053
97.5055
97.506
97.5072
97.5095
97.5113
97.5128
97.5147
97.5163
97.5174
97.518
97.5177
97.5168
97.5153
97.5136
97.5121
97.5102
97.5076
97.5062
97.5056
97.5052
97.505
97.5049
97.5047
97.5045
97.5045
97.5046
97.5054
97.5069
97.5081
97.5093
97.5107
97.512
97.5128
97.5132
97.5128
97.5119
97.5107
97.5095
97.5079
97.506
97.505
97.5043
97.5039
97.5035
97.5032
97.503
97.5027
97.5024
97.5022
97.5019
97.5017
97.5015
97.5015
97.5014
97.5014
97.5016
97.5018
97.5021
97.5023
97.5026
97.5028
97.5031
97.5034
97.5037
97.5041
97.5048
97.5059
97.508
97.5098
97.5111
97.5122
97.513
97.5133
97.5131
97.5125
97.5115
97.5102
97.5089
97.5075
97.5058
97.5049
97.5047
97.5046
97.5047
97.5047
97.5048
97.5049
97.5051
97.5056
97.5068
97.5091
97.5109
97.5123
97.5138
97.515
97.5157
97.5161
97.5159
97.5153
97.5143
97.5129
97.5115
97.5096
97.5071
97.5058
97.5051
97.5048
97.5046
97.5045
97.5044
97.5042
97.5042
97.5044
97.5051
97.5066
97.5079
97.5089
97.5101
97.5109
97.5115
97.5117
97.5115
97.5108
97.5099
97.5088
97.5072
97.5054
97.5044
97.5038
97.5034
97.5031
97.5029
97.5026
97.5024
97.5022
97.502
97.5017
97.5015
97.5014
97.5014
97.5013
97.5013
97.5014
97.5016
97.5019
97.5021
97.5023
97.5025
97.5027
97.503
97.5033
97.5037
97.5043
97.5054
97.5074
97.5092
97.5103
97.5112
97.5118
97.512
97.5119
97.5115
97.5107
97.5097
97.5086
97.5071
97.5054
97.5046
97.5043
97.5043
97.5043
97.5043
97.5044
97.5045
97.5047
97.5052
97.5064
97.5086
97.5104
97.5117
97.513
97.5139
97.5145
97.5147
97.5146
97.5142
97.5133
97.5122
97.5109
97.509
97.5066
97.5053
97.5047
97.5044
97.5042
97.5041
97.504
97.5039
97.5039
97.5042
97.5049
97.5063
97.5076
97.5085
97.5094
97.5101
97.5105
97.5106
97.5105
97.51
97.5092
97.5082
97.5066
97.5049
97.504
97.5034
97.5031
97.5028
97.5026
97.5024
97.5022
97.502
97.5018
97.5016
97.5014
97.5012
97.5012
97.5011
97.5011
97.5013
97.5015
97.5017
97.5018
97.502
97.5022
97.5024
97.5026
97.5029
97.5033
97.5038
97.5048
97.5067
97.5086
97.5098
97.5108
97.5114
97.5116
97.5115
97.5111
97.5103
97.5093
97.5082
97.5065
97.5049
97.5042
97.5039
97.5039
97.5039
97.5039
97.5039
97.504
97.5043
97.5047
97.5058
97.5079
97.51
97.5113
97.5126
97.5135
97.5142
97.5144
97.5143
97.5137
97.5129
97.5117
97.5103
97.5081
97.5059
97.5048
97.5043
97.504
97.5038
97.5037
97.5036
97.5036
97.5036
97.5038
97.5044
97.5058
97.5073
97.5082
97.5091
97.5098
97.5102
97.5103
97.5101
97.5096
97.5088
97.5077
97.506
97.5044
97.5035
97.503
97.5027
97.5025
97.5023
97.5021
97.5019
97.5018
97.5016
97.5014
97.5012
97.5011
97.5011
97.501
97.501
97.5011
97.5013
97.5014
97.5016
97.5018
97.5019
97.5021
97.5023
97.5026
97.5029
97.5033
97.5039
97.5052
97.5073
97.5087
97.5098
97.5105
97.5108
97.5107
97.5102
97.5093
97.5083
97.5069
97.5052
97.5042
97.5037
97.5035
97.5034
97.5034
97.5034
97.5035
97.5036
97.5038
97.5042
97.5048
97.5062
97.5084
97.5101
97.5114
97.5125
97.5132
97.5135
97.5133
97.5127
97.5117
97.5104
97.5087
97.5064
97.5049
97.5042
97.5038
97.5035
97.5034
97.5033
97.5032
97.5032
97.5033
97.5034
97.5038
97.5047
97.5062
97.5073
97.5083
97.509
97.5095
97.5096
97.5094
97.5088
97.5078
97.5066
97.5047
97.5036
97.503
97.5027
97.5024
97.5022
97.502
97.5018
97.5017
97.5015
97.5014
97.5013
97.5011
97.501
97.501
97.5009
97.5009
97.501
97.5011
97.5013
97.5014
97.5015
97.5017
97.5018
97.502
97.5022
97.5025
97.5028
97.5032
97.5039
97.5048
97.5057
97.5063
97.5067
97.5069
97.5069
97.5066
97.5061
97.5055
97.5048
97.504
97.5035
97.5033
97.5031
97.503
97.5029
97.503
97.503
97.5032
97.5034
97.5037
97.5041
97.5047
97.5058
97.5067
97.5075
97.5081
97.5085
97.5087
97.5086
97.5082
97.5077
97.5069
97.5059
97.5048
97.5041
97.5037
97.5033
97.5031
97.5029
97.5028
97.5028
97.5028
97.5029
97.503
97.5032
97.5036
97.5043
97.5049
97.5055
97.5059
97.5061
97.5062
97.5061
97.5057
97.5051
97.5044
97.5035
97.503
97.5026
97.5023
97.5021
97.5019
97.5017
97.5016
97.5014
97.5013
97.5012
97.5011
97.501
97.5009
97.5009
97.5008
97.5008
97.5009
97.501
97.5011
97.5012
97.5013
97.5015
97.5016
97.5018
97.502
97.5023
97.5026
97.5029
97.5034
97.5039
97.5044
97.5048
97.5051
97.5052
97.5052
97.505
97.5047
97.5044
97.5039
97.5035
97.5032
97.5029
97.5028
97.5027
97.5026
97.5026
97.5027
97.5028
97.503
97.5033
97.5037
97.5041
97.5047
97.5053
97.5058
97.5062
97.5065
97.5066
97.5065
97.5063
97.5059
97.5054
97.5048
97.5042
97.5037
97.5033
97.503
97.5028
97.5026
97.5025
97.5025
97.5025
97.5026
97.5027
97.5029
97.5032
97.5036
97.5039
97.5043
97.5045
97.5047
97.5047
97.5046
97.5044
97.504
97.5036
97.5031
97.5027
97.5024
97.5021
97.5019
97.5017
97.5016
97.5014
97.5013
97.5012
97.5011
97.501
97.5009
97.5008
97.5008
97.5008
97.5008
97.5009
97.501
97.5011
97.5012
97.5013
97.5015
97.5016
97.5018
97.502
97.5023
97.5026
97.503
97.5035
97.504
97.5045
97.505
97.5052
97.5054
97.5053
97.5052
97.5049
97.5045
97.504
97.5036
97.5032
97.5029
97.5028
97.5026
97.5026
97.5026
97.5027
97.5028
97.503
97.5033
97.5037
97.5042
97.5048
97.5054
97.5059
97.5064
97.5066
97.5067
97.5067
97.5064
97.506
97.5055
97.5049
97.5043
97.5038
97.5033
97.503
97.5028
97.5026
97.5025
97.5025
97.5025
97.5026
97.5027
97.503
97.5033
97.5036
97.504
97.5044
97.5046
97.5048
97.5048
97.5047
97.5045
97.5041
97.5037
97.5032
97.5028
97.5025
97.5022
97.5019
97.5017
97.5016
97.5014
97.5013
97.5012
97.5011
97.501
97.5009
97.5008
97.5008
92.509
92.5092
92.5101
92.5112
92.5121
92.513
92.514
92.5151
92.5162
92.5173
92.5185
92.5195
92.5205
92.5213
92.522
92.5226
92.5232
92.5237
92.5243
92.5248
92.5254
92.5259
92.5266
92.5273
92.528
92.5287
92.5294
92.53
92.5305
92.5309
92.5312
92.5313
92.5312
92.531
92.5306
92.5302
92.5296
92.529
92.5285
92.5279
92.5275
92.5272
92.527
92.5269
92.5269
92.5271
92.5274
92.5277
92.5281
92.5285
92.5288
92.529
92.5289
92.5287
92.5284
92.5279
92.5274
92.5268
92.5262
92.5256
92.525
92.5243
92.5236
92.5228
92.5221
92.5214
92.5208
92.5203
92.5198
92.5194
92.519
92.5186
92.5182
92.5177
92.5172
92.5165
92.5158
92.515
92.5141
92.5132
92.5124
92.5115
92.5108
92.51
92.509
92.5083
92.5081
92.5096
92.5092
92.5104
92.5121
92.5132
92.5143
92.5154
92.5167
92.5181
92.5195
92.5208
92.5221
92.5232
92.5242
92.525
92.5257
92.5264
92.5269
92.5275
92.5281
92.5287
92.5293
92.53
92.5308
92.5315
92.5323
92.5331
92.5338
92.5344
92.5348
92.5351
92.5352
92.5351
92.5349
92.5345
92.5339
92.5333
92.5326
92.5319
92.5314
92.5309
92.5305
92.5303
92.5302
92.5302
92.5304
92.5307
92.5311
92.5316
92.5321
92.5324
92.5325
92.5325
92.5322
92.5318
92.5312
92.5306
92.5299
92.5293
92.5287
92.528
92.5272
92.5264
92.5255
92.5247
92.5239
92.5233
92.5227
92.5222
92.5218
92.5214
92.521
92.5205
92.52
92.5194
92.5186
92.5177
92.5167
92.5157
92.5146
92.5136
92.5126
92.5117
92.5107
92.5093
92.5083
92.5086
92.5106
92.5103
92.5127
92.5135
92.5139
92.5149
92.516
92.5174
92.5187
92.5201
92.5215
92.5228
92.524
92.525
92.5259
92.5266
92.5272
92.5278
92.5284
92.5289
92.5295
92.53
92.5306
92.5313
92.532
92.5327
92.5333
92.534
92.5345
92.5349
92.5351
92.5352
92.5352
92.535
92.5346
92.5341
92.5335
92.5329
92.5324
92.5319
92.5315
92.5312
92.531
92.5309
92.5309
92.5311
92.5313
92.5316
92.532
92.5323
92.5326
92.5326
92.5326
92.5323
92.5319
92.5313
92.5307
92.5301
92.5295
92.5289
92.5283
92.5276
92.5268
92.5261
92.5254
92.5248
92.5242
92.5237
92.5233
92.5229
92.5225
92.522
92.5215
92.5209
92.5202
92.5193
92.5184
92.5174
92.5163
92.5151
92.5141
92.5131
92.5123
92.5119
92.5112
92.5092
92.5095
92.5117
92.5116
92.5148
92.515
92.5151
92.5162
92.5178
92.5195
92.5212
92.523
92.5247
92.5262
92.5277
92.5289
92.53
92.5309
92.5317
92.5324
92.533
92.5335
92.534
92.5346
92.5351
92.5357
92.5364
92.537
92.5377
92.5383
92.5388
92.5392
92.5395
92.5396
92.5395
92.5393
92.5389
92.5384
92.5379
92.5373
92.5368
92.5364
92.5361
92.5358
92.5356
92.5356
92.5356
92.5357
92.5359
92.536
92.5363
92.5365
92.5367
92.5367
92.5365
92.5362
92.5358
92.5352
92.5345
92.5338
92.5332
92.5326
92.532
92.5313
92.5306
92.5299
92.5293
92.5288
92.5283
92.5278
92.5274
92.527
92.5265
92.5259
92.5252
92.5244
92.5235
92.5224
92.5212
92.5198
92.5184
92.517
92.5155
92.5142
92.5133
92.5132
92.513
92.5103
92.5104
92.5127
92.5128
92.5167
92.5166
92.5166
92.518
92.5203
92.5229
92.5256
92.5283
92.5309
92.5334
92.5356
92.5375
92.5392
92.5406
92.5417
92.5426
92.5433
92.5439
92.5445
92.545
92.5455
92.546
92.5466
92.5472
92.548
92.5487
92.5492
92.5497
92.5499
92.55
92.5499
92.5497
92.5493
92.5488
92.5482
92.5477
92.5473
92.5469
92.5467
92.5465
92.5464
92.5464
92.5464
92.5465
92.5465
92.5465
92.5466
92.5467
92.5467
92.5467
92.5465
92.5462
92.5456
92.5448
92.5438
92.5423
92.5416
92.5411
92.5405
92.5399
92.5391
92.5385
92.5381
92.5376
92.5372
92.5368
92.5363
92.5358
92.5353
92.5345
92.5334
92.5321
92.5306
92.5288
92.5268
92.5246
92.5223
92.52
92.5177
92.5158
92.5146
92.5146
92.5147
92.5114
92.5113
92.5135
92.5137
92.5181
92.5178
92.5178
92.5196
92.5227
92.5264
92.5307
92.5352
92.5399
92.5446
92.5491
92.5532
92.5567
92.5593
92.5615
92.5631
92.5641
92.5649
92.5655
92.5659
92.5663
92.5668
92.5675
92.5686
92.5711
92.5733
92.575
92.5762
92.5768
92.577
92.5767
92.576
92.5747
92.5729
92.5706
92.5692
92.5687
92.5685
92.5685
92.5685
92.5685
92.5686
92.5687
92.5687
92.5686
92.5685
92.5687
92.569
92.5694
92.5695
92.5696
92.57
92.5709
92.5724
92.5742
92.5742
92.5704
92.5675
92.5648
92.5623
92.5588
92.5562
92.555
92.5544
92.554
92.5536
92.5531
92.5526
92.5518
92.5503
92.5488
92.5466
92.5433
92.5395
92.5353
92.5311
92.527
92.5232
92.5199
92.5172
92.5156
92.5156
92.5159
92.5121
92.512
92.5139
92.5141
92.5189
92.5185
92.5184
92.5205
92.5241
92.5289
92.5347
92.5414
92.5493
92.5585
92.5694
92.5823
92.5978
92.6143
92.6271
92.6329
92.6355
92.637
92.638
92.6389
92.6404
92.643
92.6469
92.6478
92.6439
92.6405
92.6385
92.6373
92.6368
92.6369
92.6377
92.6392
92.6415
92.645
92.6497
92.6514
92.6486
92.6459
92.6447
92.6445
92.6446
92.6451
92.6456
92.6458
92.6463
92.6449
92.6372
92.6259
92.6164
92.6093
92.6048
92.6031
92.6045
92.61
92.6216
92.6348
92.6273
92.6204
92.6186
92.6223
92.6273
92.6221
92.6156
92.6122
92.6114
92.6115
92.6118
92.612
92.6109
92.6086
92.5998
92.5823
92.567
92.5551
92.5454
92.5375
92.531
92.5256
92.5213
92.518
92.5162
92.5163
92.5166
92.5126
92.5123
92.5138
92.5141
92.5188
92.5184
92.5184
92.5204
92.5241
92.5291
92.5353
92.5429
92.5525
92.5653
92.5835
92.6123
92.6628
92.7376
92.7906
92.8053
92.809
92.8132
92.8155
92.8179
92.8235
92.8305
92.8288
92.8038
92.7394
92.6973
92.6756
92.6638
92.6582
92.6577
92.6622
92.6723
92.6906
92.725
92.7854
92.8304
92.8383
92.8345
92.8288
92.827
92.8279
92.8291
92.8291
92.8305
92.8377
92.8238
92.7558
92.6841
92.6373
92.611
92.5958
92.5862
92.5805
92.5777
92.5777
92.5802
92.5838
92.592
92.6079
92.6495
92.7413
92.7978
92.7982
92.7864
92.7841
92.7849
92.7862
92.7842
92.7815
92.7842
92.7331
92.6403
92.5899
92.565
92.5499
92.5396
92.5319
92.526
92.5214
92.518
92.5162
92.5163
92.5167
92.5125
92.5123
92.5133
92.5135
92.518
92.5176
92.5176
92.5194
92.5226
92.5268
92.532
92.5384
92.5464
92.5572
92.573
92.6008
92.6646
92.7937
92.8817
92.8789
92.8753
92.882
92.8852
92.8853
92.8737
92.813
92.7136
92.6521
92.6183
92.601
92.5918
92.5868
92.5846
92.5845
92.5867
92.5913
92.5996
92.6142
92.6415
92.6874
92.7717
92.8559
92.8913
92.8938
92.8965
92.8974
92.8939
92.8979
92.9009
92.8278
92.6925
92.6193
92.5875
92.5709
92.5607
92.5537
92.5488
92.5454
92.5433
92.5427
92.5451
92.5498
92.558
92.5755
92.6187
92.7015
92.8118
92.8501
92.8485
92.8494
92.8478
92.841
92.8389
92.8393
92.7638
92.6298
92.5771
92.5565
92.5442
92.5356
92.5292
92.5241
92.5202
92.5172
92.5156
92.5157
92.516
92.5121
92.5119
92.5123
92.5124
92.5164
92.5163
92.5162
92.5177
92.5201
92.5232
92.5269
92.5314
92.5369
92.5441
92.5539
92.5692
92.5996
92.6705
92.7978
92.868
92.8695
92.8684
92.8731
92.8559
92.7703
92.6559
92.5932
92.5676
92.557
92.5519
92.5492
92.5479
92.5474
92.5475
92.5483
92.5499
92.5526
92.5573
92.566
92.584
92.6255
92.7075
92.8242
92.8778
92.8823
92.8799
92.8808
92.8815
92.8001
92.6694
92.5974
92.5684
92.555
92.5469
92.5415
92.5372
92.5341
92.5319
92.5306
92.5301
92.5308
92.5324
92.5355
92.5413
92.5545
92.5916
92.6795
92.804
92.8362
92.8339
92.8286
92.8284
92.8192
92.742
92.6277
92.5746
92.5538
92.5425
92.5348
92.5291
92.5246
92.521
92.518
92.5158
92.5144
92.5145
92.5146
92.5112
92.5111
92.511
92.511
92.5143
92.5145
92.5145
92.5156
92.5173
92.5194
92.522
92.5253
92.5294
92.5345
92.5405
92.5489
92.5623
92.5893
92.6555
92.7797
92.8618
92.8697
92.8535
92.769
92.6423
92.5761
92.5529
92.5441
92.5397
92.5372
92.5359
92.5353
92.5351
92.5353
92.5358
92.5368
92.5385
92.5412
92.5455
92.5525
92.567
92.6048
92.6949
92.828
92.8758
92.876
92.8781
92.8027
92.6614
92.5876
92.5606
92.5489
92.5422
92.5377
92.5349
92.5311
92.5283
92.5264
92.5253
92.5248
92.5251
92.5261
92.5281
92.5307
92.5367
92.5514
92.5953
92.7074
92.8159
92.8308
92.8263
92.8142
92.7187
92.6122
92.5652
92.5485
92.5391
92.5326
92.5278
92.5236
92.5203
92.5177
92.5156
92.514
92.513
92.513
92.5128
92.5099
92.51
92.5095
92.5092
92.5118
92.5128
92.5132
92.514
92.5153
92.5169
92.519
92.5218
92.5256
92.5307
92.5346
92.5395
92.5465
92.5589
92.5855
92.6508
92.7674
92.8358
92.7734
92.6472
92.575
92.5484
92.5381
92.5354
92.5325
92.5308
92.53
92.5296
92.5295
92.5297
92.5302
92.531
92.5324
92.5346
92.5381
92.5411
92.5471
92.5629
92.6057
92.7097
92.8397
92.8815
92.8295
92.6772
92.5908
92.5596
92.5469
92.5418
92.5389
92.5364
92.5341
92.5282
92.5251
92.5233
92.5221
92.5216
92.5217
92.5224
92.5243
92.5264
92.5288
92.5368
92.5559
92.6172
92.7673
92.833
92.8124
92.7112
92.6068
92.5614
92.5455
92.5374
92.532
92.528
92.5249
92.5208
92.5178
92.5155
92.5139
92.5127
92.5119
92.5115
92.5106
92.5084
92.5087
92.5079
92.5073
92.5086
92.5105
92.5115
92.5124
92.5135
92.5148
92.5167
92.5193
92.5236
92.5317
92.5354
92.538
92.5401
92.5459
92.5593
92.5876
92.6415
92.6814
92.6457
92.5841
92.5516
92.537
92.5308
92.53
92.5279
92.5268
92.5264
92.5263
92.5264
92.5266
92.527
92.5276
92.5287
92.5309
92.5354
92.5383
92.539
92.5469
92.5671
92.621
92.735
92.8084
92.7101
92.6067
92.5642
92.5476
92.541
92.5414
92.538
92.5311
92.5254
92.521
92.5188
92.5174
92.5164
92.516
92.516
92.5166
92.5186
92.5225
92.5242
92.5296
92.5416
92.5704
92.6472
92.7555
92.7012
92.6065
92.5618
92.5448
92.5367
92.533
92.5307
92.5287
92.5259
92.5193
92.5158
92.5137
92.5123
92.5112
92.5104
92.5095
92.5078
92.5068
92.5073
92.5066
92.506
92.5063
92.5073
92.5082
92.509
92.5098
92.5109
92.5124
92.5144
92.5174
92.523
92.5298
92.5373
92.5384
92.5391
92.5465
92.5613
92.5839
92.6007
92.586
92.5597
92.541
92.5305
92.5255
92.5232
92.5202
92.5189
92.5185
92.5185
92.5186
92.5188
92.5192
92.5198
92.5207
92.5225
92.5268
92.5335
92.534
92.5388
92.5514
92.5788
92.6318
92.6703
92.6239
92.5759
92.5518
92.5406
92.5373
92.5376
92.5291
92.5229
92.519
92.5163
92.5147
92.5135
92.5127
92.5123
92.5123
92.513
92.5149
92.5183
92.5208
92.5252
92.5344
92.552
92.584
92.6219
92.6014
92.5649
92.5458
92.5365
92.5329
92.5334
92.5306
92.5242
92.5188
92.5144
92.512
92.5104
92.5092
92.5083
92.5075
92.5068
92.5059
92.5056
92.5061
92.5055
92.505
92.505
92.5055
92.5061
92.5067
92.5075
92.5085
92.5097
92.5113
92.5135
92.5169
92.5222
92.5303
92.535
92.5341
92.5384
92.5481
92.5612
92.5698
92.5632
92.548
92.5348
92.5265
92.5221
92.5197
92.5163
92.5144
92.5138
92.5136
92.5137
92.5139
92.5142
92.5148
92.5158
92.5174
92.5208
92.5266
92.5289
92.5332
92.5427
92.5598
92.5847
92.6004
92.5836
92.5597
92.5438
92.5351
92.5319
92.5302
92.5227
92.518
92.5153
92.5134
92.512
92.5109
92.5103
92.51
92.5102
92.511
92.513
92.5162
92.5185
92.5223
92.5297
92.5421
92.5591
92.5702
92.5621
92.5472
92.5366
92.531
92.5305
92.5303
92.5231
92.5175
92.5138
92.5112
92.5094
92.5081
92.5071
92.5064
92.5057
92.5052
92.5047
92.5047
92.5052
92.5046
92.5042
92.5042
92.5044
92.5048
92.5054
92.506
92.5069
92.5079
92.5092
92.511
92.5134
92.5169
92.523
92.5311
92.5303
92.5327
92.5394
92.5481
92.5534
92.5499
92.54
92.5303
92.5235
92.5197
92.5175
92.5141
92.512
92.5111
92.5107
92.5107
92.5109
92.5113
92.5118
92.5128
92.5145
92.5176
92.5228
92.5253
92.5292
92.5369
92.5491
92.5639
92.5717
92.5639
92.5495
92.538
92.5308
92.5277
92.5256
92.5192
92.5152
92.5129
92.5113
92.5101
92.5091
92.5085
92.5084
92.5088
92.5098
92.5117
92.5148
92.5169