/*--------------------------------*- C++ -*----------------------------------*\
  =========                 |
  \\      /  F ield         | OpenFOAM: The Open Source CFD Toolbox
   \\    /   O peration     | Website:  https://openfoam.org
    \\  /    A nd           | Version:  7
     \\/     M anipulation  |
\*---------------------------------------------------------------------------*/
FoamFile
{
    version     2.0;
    format      ascii;
    class       volVectorField;
    location    "1000";
    object      elongRates;
}
// * * * * * * * * * * * * * * * * * * * * * * * * * * * * * * * * * * * * * //

dimensions      [0 0 -1 0 0 0 0];

internalField   nonuniform List<vector> 
46980
(
(-2.44856e-05 -2.09684e-05 2.66111e-05)
(-2.69239e-05 -4.88795e-05 4.55556e-05)
(-2.37869e-05 -7.95784e-05 6.05556e-05)
(-1.98734e-05 -0.000114999 7.77778e-05)
(-1.87156e-05 -0.000142109 9.33333e-05)
(-1.83493e-05 -0.00016384 0.000105556)
(-1.65282e-05 -0.000182751 0.000116111)
(-1.31158e-05 -0.000200291 0.000125)
(-8.62476e-06 -0.00021675 0.000133889)
(-3.65165e-06 -0.000231716 0.000141667)
(1.22858e-06 -0.00024447 0.000148333)
(5.50334e-06 -0.000254314 0.000153333)
(8.7723e-06 -0.000260831 0.000156667)
(1.0835e-05 -0.000264124 0.00016)
(1.17344e-05 -0.000264919 0.000161667)
(1.1755e-05 -0.000264393 0.000162778)
(1.12991e-05 -0.000263983 0.000163889)
(1.06453e-05 -0.000264792 0.000165556)
(9.89237e-06 -0.000267463 0.000168333)
(9.07563e-06 -0.000272395 0.000171667)
(8.23526e-06 -0.000279778 0.000176667)
(7.42051e-06 -0.000289632 0.000182778)
(6.67372e-06 -0.000301795 0.00019)
(6.00247e-06 -0.00031587 0.000197778)
(5.37736e-06 -0.000331239 0.000206667)
(4.86977e-06 -0.000347082 0.000215)
(4.57567e-06 -0.000362866 0.000223889)
(4.34671e-06 -0.000377256 0.000231667)
(4.01041e-06 -0.000389062 0.000238333)
(3.63272e-06 -0.000397492 0.000242778)
(3.41246e-06 -0.000402163 0.000245556)
(3.50757e-06 -0.00040292 0.000245556)
(3.89901e-06 -0.000399679 0.000243889)
(4.37859e-06 -0.000392417 0.000239444)
(4.66805e-06 -0.000381336 0.000233889)
(4.60209e-06 -0.000367091 0.000226667)
(4.29801e-06 -0.000350851 0.000217778)
(4.00487e-06 -0.000334208 0.000208889)
(3.76493e-06 -0.00031817 0.000201111)
(3.51606e-06 -0.000303641 0.000192778)
(3.29165e-06 -0.000291582 0.000186667)
(3.12336e-06 -0.000282664 0.000181667)
(2.99333e-06 -0.000277333 0.000178889)
(2.88305e-06 -0.000275864 0.000178333)
(2.81886e-06 -0.000278415 0.000178889)
(2.90692e-06 -0.000285038 0.000182778)
(3.3097e-06 -0.000295602 0.000187778)
(4.13015e-06 -0.000309557 0.000194444)
(5.20372e-06 -0.00032568 0.000202778)
(6.05285e-06 -0.000341875 0.000210556)
(6.15631e-06 -0.000355897 0.000217222)
(5.24863e-06 -0.000365869 0.000222222)
(3.43844e-06 -0.000370798 0.000225556)
(1.12971e-06 -0.000370589 0.000226111)
(-1.18961e-06 -0.000365807 0.000223889)
(-3.08568e-06 -0.000357414 0.00022)
(-4.18529e-06 -0.000346606 0.000213889)
(-3.99689e-06 -0.000334617 0.000207222)
(-2.24548e-06 -0.000322693 0.000199444)
(3.77216e-07 -0.000310056 0.000191111)
(2.64127e-06 -0.000295436 0.000182222)
(3.73918e-06 -0.000278508 0.000172222)
(3.71655e-06 -0.000260049 0.000162222)
(3.29748e-06 -0.000242231 0.000152778)
(3.08397e-06 -0.000226556 0.000144444)
(3.22276e-06 -0.000213678 0.000136111)
(3.68133e-06 -0.000203845 0.000130556)
(4.3701e-06 -0.000196977 0.000126111)
(5.19831e-06 -0.000192877 0.000123333)
(6.09923e-06 -0.000191274 0.000121111)
(6.97881e-06 -0.00019176 0.000120556)
(7.74194e-06 -0.000193745 0.000120556)
(8.29098e-06 -0.000196639 0.000121111)
(8.37663e-06 -0.000199462 0.000121667)
(7.64048e-06 -0.000201008 0.000121111)
(5.84722e-06 -0.000200297 0.000120556)
(2.96858e-06 -0.000196671 0.000118333)
(-7.78297e-07 -0.000190016 0.000115)
(-4.95782e-06 -0.000180649 0.000110556)
(-9.00668e-06 -0.000169086 0.000104444)
(-1.23106e-05 -0.000155723 9.77778e-05)
(-1.43364e-05 -0.000140434 8.94444e-05)
(-1.51221e-05 -0.000122148 7.94444e-05)
(-1.6532e-05 -9.88631e-05 6.66667e-05)
(-2.01779e-05 -6.83402e-05 5.16667e-05)
(-2.29881e-05 -4.19779e-05 3.88889e-05)
(-2.0928e-05 -1.79931e-05 2.27778e-05)
(-6.30869e-05 -1.72453e-05 4.61111e-05)
(-6.9155e-05 -3.95259e-05 7.22222e-05)
(-7.95119e-05 -7.56524e-05 0.000100556)
(-8.92161e-05 -0.000149847 0.000143333)
(-9.18056e-05 -0.000206345 0.000177778)
(-8.9215e-05 -0.000254003 0.0002)
(-7.92129e-05 -0.000299725 0.000216667)
(-6.38451e-05 -0.000345706 0.000227778)
(-4.51407e-05 -0.000391377 0.000244444)
(-2.48708e-05 -0.000434749 0.000255556)
(-4.7462e-06 -0.000473227 0.000261111)
(1.35879e-05 -0.000504319 0.000272222)
(2.86953e-05 -0.000526262 0.000277778)
(3.96691e-05 -0.000538755 0.000283333)
(4.63557e-05 -0.000543352 0.000277778)
(4.94801e-05 -0.000543091 0.000283333)
(5.03413e-05 -0.000542063 0.000277778)
(4.98892e-05 -0.000543318 0.000277778)
(4.84267e-05 -0.000548428 0.000288889)
(4.60747e-05 -0.000558318 0.000294444)
(4.29927e-05 -0.000573411 0.000305556)
(3.93475e-05 -0.000593772 0.000316667)
(3.52426e-05 -0.000618993 0.000333333)
(3.06375e-05 -0.000648039 0.000344444)
(2.53464e-05 -0.000679336 0.000372222)
(1.97531e-05 -0.000711047 0.000388889)
(1.46254e-05 -0.000742851 0.000405556)
(9.84011e-06 -0.000771618 0.000422222)
(5.15663e-06 -0.000794712 0.000433333)
(1.18814e-06 -0.000810808 0.000444444)
(-1.09391e-06 -0.000819671 0.00045)
(-9.86157e-07 -0.000821412 0.000455556)
(1.48347e-06 -0.000815838 0.00045)
(5.5108e-06 -0.000802417 0.000438889)
(9.91048e-06 -0.000780874 0.000422222)
(1.37441e-05 -0.000752057 0.000411111)
(1.70279e-05 -0.000718411 0.000394444)
(2.02347e-05 -0.000683819 0.000372222)
(2.30457e-05 -0.000650013 0.000355556)
(2.49829e-05 -0.000618724 0.000338889)
(2.62132e-05 -0.000592388 0.000322222)
(2.69552e-05 -0.000572707 0.000311111)
(2.72005e-05 -0.000560768 0.000305556)
(2.68799e-05 -0.000557168 0.000305556)
(2.60113e-05 -0.000562289 0.000311111)
(2.48438e-05 -0.000576374 0.000316667)
(2.38233e-05 -0.000599326 0.000327778)
(2.32502e-05 -0.000630004 0.000344444)
(2.25924e-05 -0.000665313 0.000361111)
(2.04327e-05 -0.000699673 0.000377778)
(1.55336e-05 -0.00072751 0.000394444)
(7.73183e-06 -0.000744726 0.000405556)
(-1.90812e-06 -0.000749979 0.000416667)
(-1.15663e-05 -0.000744248 0.000416667)
(-1.95039e-05 -0.000729828 0.000411111)
(-2.45599e-05 -0.000709372 0.000405556)
(-2.61259e-05 -0.000685618 0.000388889)
(-2.30897e-05 -0.000661554 0.000377778)
(-1.46178e-05 -0.000640892 0.000366667)
(-2.96211e-06 -0.00062042 0.000344444)
(7.79473e-06 -0.000595009 0.000327778)
(1.47824e-05 -0.000562453 0.000305556)
(1.78221e-05 -0.000524047 0.000283333)
(1.91512e-05 -0.000486037 0.000266667)
(2.05731e-05 -0.000452505 0.000244444)
(2.24031e-05 -0.000425013 0.000233333)
(2.45846e-05 -0.000404232 0.000216667)
(2.69671e-05 -0.000390041 0.000211111)
(2.93801e-05 -0.000382046 0.000205556)
(3.16751e-05 -0.000379697 0.0002)
(3.35056e-05 -0.000381988 0.0002)
(3.44996e-05 -0.000387361 0.0002)
(3.43368e-05 -0.000394427 0.000205556)
(3.21059e-05 -0.000400369 0.000205556)
(2.65573e-05 -0.000401696 0.000205556)
(1.7052e-05 -0.000395839 0.000211111)
(3.73747e-06 -0.000381374 0.000205556)
(-1.24616e-05 -0.000358568 0.000211111)
(-3.00179e-05 -0.000329014 0.0002)
(-4.7124e-05 -0.000294905 0.000194444)
(-6.18523e-05 -0.0002583 0.000183333)
(-7.21065e-05 -0.000220192 0.000166667)
(-7.58711e-05 -0.000179239 0.00015)
(-7.49399e-05 -0.000130033 0.000122778)
(-6.75169e-05 -6.55504e-05 8.55556e-05)
(-5.89992e-05 -3.42737e-05 6.16667e-05)
(-5.38766e-05 -1.49415e-05 4e-05)
(-0.000101309 -7.73826e-06 6.11111e-05)
(-0.000124232 -2.1327e-05 9.66667e-05)
(-0.000209936 -5.16825e-05 0.000150556)
(-0.000292423 -0.00013579 0.000261111)
(-0.000307601 -0.000197499 0.000311111)
(-0.000302571 -0.000249363 0.000327778)
(-0.000273744 -0.000302932 0.000338889)
(-0.000229157 -0.000361586 0.000344444)
(-0.000173653 -0.000424003 0.000344444)
(-0.000111683 -0.000486431 0.000338889)
(-4.78559e-05 -0.000543973 0.000327778)
(1.30911e-05 -0.000591639 0.000316667)
(6.65785e-05 -0.000625452 0.000305556)
(0.000109091 -0.000643854 0.000288889)
(0.000138959 -0.000648593 0.000272222)
(0.000157164 -0.000644509 0.000261111)
(0.000167058 -0.000639241 0.00025)
(0.000171355 -0.000638174 0.00025)
(0.00017086 -0.00064324 0.000255556)
(0.000166007 -0.000655451 0.000266667)
(0.000157384 -0.000675141 0.000277778)
(0.000145512 -0.000702199 0.000305556)
(0.000130581 -0.000735797 0.000338889)
(0.000112233 -0.000773907 0.000372222)
(8.94554e-05 -0.000813595 0.000405556)
(6.355e-05 -0.0008518 0.000444444)
(3.80431e-05 -0.000890949 0.000488889)
(1.37536e-05 -0.000925744 0.000522222)
(-8.96688e-06 -0.000952382 0.00055)
(-2.72751e-05 -0.000969942 0.000572222)
(-3.77457e-05 -0.000979414 0.000588889)
(-3.80707e-05 -0.000981826 0.000588889)
(-2.82321e-05 -0.000976928 0.000577778)
(-1.06246e-05 -0.000963146 0.000555556)
(1.09285e-05 -0.00093866 0.000527778)
(3.27637e-05 -0.00090341 0.000494444)
(5.37901e-05 -0.000860445 0.000461111)
(7.41863e-05 -0.000816477 0.000416667)
(9.15622e-05 -0.00077222 0.000388889)
(0.000103884 -0.000729343 0.000355556)
(0.000112082 -0.000692329 0.000322222)
(0.000117243 -0.000664239 0.0003)
(0.000119523 -0.000646865 0.000294444)
(0.000118731 -0.000641112 0.000288889)
(0.000114702 -0.000647525 0.000294444)
(0.000107768 -0.00066667 0.000311111)
(9.8755e-05 -0.00069886 0.000333333)
(8.81998e-05 -0.000742764 0.000366667)
(7.45255e-05 -0.000793341 0.000405556)
(5.43627e-05 -0.000840543 0.000444444)
(2.60953e-05 -0.000875487 0.000483333)
(-8.31555e-06 -0.000892671 0.000516667)
(-4.38991e-05 -0.000892056 0.000533333)
(-7.4492e-05 -0.00087724 0.000544444)
(-9.52262e-05 -0.000853214 0.000544444)
(-0.000103923 -0.000824187 0.000533333)
(-0.000101255 -0.000793313 0.000516667)
(-8.63428e-05 -0.000764049 0.000488889)
(-5.7179e-05 -0.000744328 0.000455556)
(-1.90448e-05 -0.000727695 0.000427778)
(1.79849e-05 -0.000702842 0.000388889)
(4.5919e-05 -0.000664177 0.00035)
(6.29139e-05 -0.000612147 0.000305556)
(7.41146e-05 -0.000559359 0.000266667)
(8.35776e-05 -0.000513036 0.000233333)
(9.16933e-05 -0.000474932 0.0002)
(9.87303e-05 -0.000446239 0.000177778)
(0.00010485 -0.000427 0.000166667)
(0.000109966 -0.000416946 0.000155556)
(0.000113854 -0.000415711 0.00015)
(0.00011533 -0.00042187 0.00015)
(0.000113135 -0.000432978 0.000161111)
(0.00010644 -0.000447838 0.000172222)
(9.24551e-05 -0.00046115 0.000188889)
(6.76836e-05 -0.000466126 0.000211111)
(3.11966e-05 -0.000458701 0.000233333)
(-1.5466e-05 -0.000437185 0.00025)
(-6.87888e-05 -0.000403117 0.000261111)
(-0.00012391 -0.000360247 0.000272222)
(-0.000175622 -0.000313131 0.000283333)
(-0.000218836 -0.000265857 0.000283333)
(-0.000248356 -0.000220544 0.000277778)
(-0.000256639 -0.000175153 0.000266667)
(-0.000246648 -0.000120386 0.000222222)
(-0.000178234 -4.60492e-05 0.000128889)
(-0.000105897 -1.9146e-05 8.33333e-05)
(-8.64654e-05 -6.97787e-06 5.22222e-05)
(-0.000135922 1.89332e-06 7.38889e-05)
(-0.000180311 5.9895e-07 0.000121111)
(-0.000342556 -9.60131e-06 0.0002)
(-0.000493432 -4.77056e-05 0.000327778)
(-0.000507368 -7.42843e-05 0.000355556)
(-0.00048439 -9.51159e-05 0.000333333)
(-0.000432296 -0.000119849 0.000305556)
(-0.000362578 -0.000152029 0.000266667)
(-0.000279346 -0.000190891 0.000227778)
(-0.000186462 -0.000233216 0.000183333)
(-8.87988e-05 -0.000274264 0.000138889)
(7.57135e-06 -0.000308456 8.33333e-05)
(9.56706e-05 -0.000330598 3.88889e-05)
(0.00016905 -0.000337477 -1.11111e-05)
(0.000223055 -0.000329788 -5.55556e-05)
(0.000257485 -0.000312182 -8.88889e-05)
(0.000278041 -0.000295785 -0.000116667)
(0.000289692 -0.000287685 -0.000127778)
(0.000293067 -0.000287797 -0.000127778)
(0.000288429 -0.000295639 -0.000122222)
(0.000276748 -0.000310742 -0.0001)
(0.000258769 -0.000332691 -7.77778e-05)
(0.00023449 -0.000360433 -5e-05)
(0.000202578 -0.000391112 -5.55556e-06)
(0.000159218 -0.000420261 3.88889e-05)
(0.000106216 -0.000442817 8.33333e-05)
(5.23987e-05 -0.000469142 0.000127778)
(6.15466e-07 -0.000491349 0.000177778)
(-4.76554e-05 -0.000505187 0.000211111)
(-8.60142e-05 -0.000511762 0.000238889)
(-0.000107956 -0.000514648 0.000255556)
(-0.000109354 -0.000516392 0.000255556)
(-9.0008e-05 -0.000516921 0.000244444)
(-5.38242e-05 -0.000513366 0.000222222)
(-7.54078e-06 -0.000501424 0.000183333)
(4.12562e-05 -0.000478479 0.000144444)
(8.95118e-05 -0.000446563 9.44444e-05)
(0.000136313 -0.000415806 5e-05)
(0.000174627 -0.00038187 5.55556e-06)
(0.00019998 -0.000344391 -3.33333e-05)
(0.000216015 -0.000310657 -6.66667e-05)
(0.000225984 -0.000284631 -8.33333e-05)
(0.000230409 -0.000268132 -0.0001)
(0.000228856 -0.000261787 -0.000105556)
(0.000220645 -0.000265804 -0.0001)
(0.000205858 -0.000281087 -7.77778e-05)
(0.000185426 -0.000309493 -5e-05)
(0.000159839 -0.000351309 -5.55556e-06)
(0.000125521 -0.000400461 4.44444e-05)
(7.67246e-05 -0.000442266 0.0001)
(1.36614e-05 -0.000467094 0.000161111)
(-5.63031e-05 -0.000471307 0.000205556)
(-0.000122035 -0.000458972 0.000238889)
(-0.000172231 -0.000437923 0.000261111)
(-0.000199295 -0.000416379 0.000266667)
(-0.00020163 -0.00039969 0.000255556)
(-0.000185456 -0.00038871 0.000233333)
(-0.000154156 -0.000379136 0.0002)
(-0.000104021 -0.000374659 0.000172222)
(-4.00047e-05 -0.000374271 0.000138889)
(2.52435e-05 -0.000365996 9.44444e-05)
(7.85651e-05 -0.000340419 5e-05)
(0.000113965 -0.000292348 5.55556e-06)
(0.000138627 -0.000242474 -4.44444e-05)
(0.000157979 -0.0002017 -7.77778e-05)
(0.000171809 -0.000168837 -0.000111111)
(0.000181608 -0.000144641 -0.000127778)
(0.000188708 -0.000128994 -0.000144444)
(0.000193581 -0.000122132 -0.00015)
(0.000196438 -0.000124813 -0.00015)
(0.000195068 -0.000135654 -0.000144444)
(0.000187426 -0.00015244 -0.000127778)
(0.000173406 -0.000178194 -0.0001)
(0.0001478 -0.000204812 -6.66667e-05)
(0.000103977 -0.00022217 -2.22222e-05)
(4.19893e-05 -0.000226358 2.77778e-05)
(-3.40534e-05 -0.000216442 7.77778e-05)
(-0.000117938 -0.00019543 0.000127778)
(-0.00020244 -0.000168164 0.000172222)
(-0.000281128 -0.000139619 0.000211111)
(-0.000348764 -0.000113727 0.000255556)
(-0.000400417 -9.22072e-05 0.000283333)
(-0.000425492 -7.27161e-05 0.0003)
(-0.000417478 -4.72022e-05 0.000277778)
(-0.000291301 -1.09457e-05 0.000166667)
(-0.000153859 -7.27144e-07 0.000103889)
(-0.000116097 1.15599e-06 6.38889e-05)
(-0.000164432 9.82063e-06 8.5e-05)
(-0.000229172 2.13455e-05 0.000140556)
(-0.000463294 3.43125e-05 0.000233333)
(-0.000673003 5.05367e-05 0.000372222)
(-0.000670864 6.01313e-05 0.000355556)
(-0.000615619 6.61781e-05 0.000294444)
(-0.000534333 6.81801e-05 0.000222222)
(-0.000442136 6.57551e-05 0.000144444)
(-0.000340346 5.94939e-05 6.11111e-05)
(-0.000229557 5.09794e-05 -1.66667e-05)
(-0.000112001 4.29244e-05 -0.000105556)
(7.395e-06 3.90825e-05 -0.000194444)
(0.000120742 4.34025e-05 -0.000283333)
(0.000218858 5.85169e-05 -0.000372222)
(0.000292085 8.34581e-05 -0.00045)
(0.000336837 0.000116331 -0.000505556)
(0.000363448 0.000143848 -0.00055)
(0.000381607 0.000157883 -0.000572222)
(0.000390224 0.000162135 -0.000577778)
(0.000388155 0.000158529 -0.000577778)
(0.000376792 0.000148472 -0.000561111)
(0.000357234 0.000131974 -0.000533333)
(0.000329189 0.000109305 -0.000511111)
(0.000289718 8.406e-05 -0.000466667)
(0.00022819 6.54131e-05 -0.000422222)
(0.000145264 7.08019e-05 -0.000372222)
(5.9297e-05 7.97175e-05 -0.000311111)
(-2.39955e-05 9.29081e-05 -0.000261111)
(-0.000102097 0.000110672 -0.000216667)
(-0.000163412 0.00012825 -0.000188889)
(-0.000198292 0.000139247 -0.000172222)
(-0.000201213 0.000139731 -0.000166667)
(-0.000171762 0.000129572 -0.000177778)
(-0.000114737 0.000112601 -0.000205556)
(-3.93193e-05 9.5535e-05 -0.00025)
(4.16436e-05 8.46113e-05 -0.000305556)
(0.000122535 8.14613e-05 -0.000361111)
(0.000201106 8.01619e-05 -0.000411111)
(0.000261652 9.90169e-05 -0.000461111)
(0.000296418 0.000133076 -0.0005)
(0.000316092 0.000164391 -0.000527778)
(0.000328208 0.000187718 -0.00055)
(0.00033348 0.000202224 -0.000566667)
(0.000330878 0.0002088 -0.000566667)
(0.000318662 0.000208418 -0.000566667)
(0.000296453 0.000199659 -0.000544444)
(0.000265544 0.000177981 -0.000516667)
(0.000226376 0.000142757 -0.000472222)
(0.000170455 0.000104873 -0.0004)
(8.70353e-05 8.39644e-05 -0.000322222)
(-1.8752e-05 8.36831e-05 -0.000238889)
(-0.000129301 0.000102099 -0.000172222)
(-0.000225083 0.00013185 -0.000122222)
(-0.000289716 0.000163896 -8.88889e-05)
(-0.000313847 0.000190423 -8.88889e-05)
(-0.000297285 0.000208159 -0.000105556)
(-0.000256622 0.000220089 -0.000133333)
(-0.000206574 0.000226586 -0.000161111)
(-0.000142521 0.000186548 -0.000183333)
(-6.16019e-05 0.000142971 -0.000205556)
(2.93349e-05 0.000109637 -0.00025)
(0.000110632 9.40275e-05 -0.000305556)
(0.000166353 0.000108788 -0.000361111)
(0.00020423 0.000134404 -0.0004)
(0.000231013 0.000160256 -0.000433333)
(0.000246208 0.000184175 -0.000461111)
(0.000254263 0.000201793 -0.000477778)
(0.000258613 0.000212812 -0.000483333)
(0.000260442 0.000216534 -0.000488889)
(0.000261006 0.000211094 -0.000488889)
(0.000256039 0.000197627 -0.000477778)
(0.000243006 0.000177528 -0.000461111)
(0.000226441 0.000145831 -0.000416667)
(0.00019645 0.000110806 -0.000366667)
(0.000139118 8.04853e-05 -0.000294444)
(5.7614e-05 5.77238e-05 -0.000216667)
(-3.95439e-05 4.52447e-05 -0.000138889)
(-0.000143785 4.10732e-05 -5e-05)
(-0.000247209 4.17189e-05 3.33333e-05)
(-0.000344837 4.39121e-05 0.000111111)
(-0.000434001 4.52244e-05 0.000183333)
(-0.000512189 4.4307e-05 0.00025)
(-0.000565772 4.10732e-05 0.000305556)
(-0.000571941 3.60158e-05 0.000316667)
(-0.000395342 2.63964e-05 0.0002)
(-0.000196082 1.6996e-05 0.000121111)
(-0.000140746 7.95178e-06 7.27778e-05)
(-0.000184865 1.57901e-05 9.22222e-05)
(-0.000265233 3.80171e-05 0.000155)
(-0.000557494 7.19876e-05 0.000261111)
(-0.000815058 0.000140757 0.0004)
(-0.00079578 0.000180779 0.000355556)
(-0.000707433 0.000204167 0.000255556)
(-0.000598348 0.000222134 0.000144444)
(-0.000487758 0.000239306 3.88889e-05)
(-0.000373724 0.000257142 -6.66667e-05)
(-0.000252794 0.000276474 -0.000188889)
(-0.000123569 0.000298857 -0.0003)
(1.15922e-05 0.00032681 -0.000427778)
(0.000145161 0.00036346 -0.000555556)
(0.000265415 0.000411068 -0.000666667)
(0.00035362 0.000471596 -0.000777778)
(0.000397966 0.000548868 -0.000888889)
(0.00042078 0.000608658 -0.000944444)
(0.000444006 0.000624166 -0.000944444)
(0.000459478 0.000623325 -0.000888889)
(0.000461065 0.00061854 -0.000888889)
(0.0004521 0.000610246 -0.000944444)
(0.000434765 0.000597819 -0.000944444)
(0.000408384 0.000581275 -0.000888889)
(0.000368603 0.000567097 -0.000833333)
(0.000292885 0.000569959 -0.000833333)
(0.000180016 0.000607388 -0.000777778)
(6.34747e-05 0.000610476 -0.000666667)
(-5.09457e-05 0.000624482 -0.000555556)
(-0.000160039 0.000646481 -0.000555556)
(-0.000243756 0.000667299 -0.0005)
(-0.000290486 0.000680091 -0.000444444)
(-0.000295183 0.000681458 -0.0005)
(-0.000257392 0.000671338 -0.0005)
(-0.000181042 0.000652809 -0.000555556)
(-7.54843e-05 0.000632503 -0.000611111)
(3.88796e-05 0.000619712 -0.000611111)
(0.000152368 0.000622659 -0.000722222)
(0.00026387 0.000601952 -0.000777778)
(0.000345506 0.000591785 -0.000888889)
(0.000383815 0.000612835 -0.000888889)
(0.000401542 0.000638385 -0.000888889)
(0.000412843 0.000657552 -0.000944444)
(0.000417844 0.00066984 -0.000944444)
(0.000414781 0.00067751 -0.000888889)
(0.00039998 0.000682767 -0.000944444)
(0.000371561 0.000685305 -0.000944444)
(0.000332181 0.000680954 -0.000888889)
(0.000285436 0.000656649 -0.000833333)
(0.000213009 0.0006081 -0.000722222)
(9.09855e-05 0.000574515 -0.000666667)
(-6.64316e-05 0.000566764 -0.000611111)
(-0.000223131 0.000576686 -0.000444444)
(-0.00034887 0.00059292 -0.000388889)
(-0.000424101 0.000606437 -0.00035)
(-0.000439156 0.000609238 -0.000338889)
(-0.000388678 0.000596481 -0.000361111)
(-0.000288555 0.000570409 -0.000411111)
(-0.000195565 0.000543279 -0.000438889)
(-0.000146466 0.000527673 -0.000438889)
(-9.01108e-05 0.000510128 -0.000466667)
(1.82724e-05 0.000485966 -0.000516667)
(0.000134748 0.000465501 -0.000577778)
(0.00021456 0.000481204 -0.000638889)
(0.00026378 0.000467231 -0.000666667)
(0.000294315 0.000457522 -0.000683333)
(0.000307515 0.000467848 -0.0007)
(0.000310719 0.000481524 -0.000705556)
(0.000310155 0.000493937 -0.000711111)
(0.000307621 0.000504258 -0.000716667)
(0.00030651 0.000509066 -0.000716667)
(0.000296717 0.000508812 -0.000716667)
(0.00027519 0.00051472 -0.000705556)
(0.000264721 0.000477376 -0.000683333)
(0.000244458 0.000404755 -0.000622222)
(0.000178779 0.000345229 -0.000527778)
(7.96403e-05 0.000296975 -0.000422222)
(-3.51351e-05 0.000259678 -0.000311111)
(-0.000154637 0.000231449 -0.0002)
(-0.000271246 0.000209713 -8.88889e-05)
(-0.000382653 0.000192296 1.66667e-05)
(-0.000489781 0.000177501 0.000116667)
(-0.000593205 0.000163338 0.000216667)
(-0.000675937 0.000145479 0.000305556)
(-0.000696838 0.000114312 0.000344444)
(-0.000478111 5.92607e-05 0.000222222)
(-0.000227859 3.16108e-05 0.000133889)
(-0.000158759 1.32067e-05 7.94444e-05)
(-0.000195776 1.94268e-05 9.61111e-05)
(-0.000285039 4.84164e-05 0.000162222)
(-0.000611611 9.60405e-05 0.000266667)
(-0.00089927 0.000200049 0.000411111)
(-0.000871834 0.000260583 0.000344444)
(-0.000764618 0.000294647 0.000222222)
(-0.000640579 0.000321684 0.0001)
(-0.000521783 0.000350094 -2.22222e-05)
(-0.000403357 0.000381863 -0.00015)
(-0.000278106 0.00041709 -0.000283333)
(-0.000141351 0.000456301 -0.000422222)
(6.74838e-06 0.000500947 -0.000611111)
(0.000158657 0.000552391 -0.000722222)
(0.000301755 0.000608236 -0.000888889)
(0.000407236 0.000659928 -0.001)
(0.000450231 0.000708517 -0.00105556)
(0.000466814 0.000713365 -0.00105556)
(0.000491127 0.000695807 -0.00111111)
(0.000506722 0.000684245 -0.00111111)
(0.000507745 0.000674426 -0.00105556)
(0.000500209 0.000665855 -0.00105556)
(0.000484973 0.000658918 -0.00105556)
(0.000460923 0.000655063 -0.001)
(0.000429925 0.00065401 -0.001)
(0.000365292 0.000651247 -0.000944444)
(0.000240958 0.000691684 -0.000888889)
(7.9065e-05 0.000746736 -0.000833333)
(-8.60475e-05 0.000798051 -0.000777778)
(-0.000225729 0.000842028 -0.000777778)
(-0.000323797 0.000872176 -0.000722222)
(-0.000375837 0.000887689 -0.000722222)
(-0.00038207 0.000890134 -0.000722222)
(-0.000342535 0.000880094 -0.000666667)
(-0.000256521 0.000856719 -0.000722222)
(-0.000125915 0.000820249 -0.000833333)
(3.40887e-05 0.00077542 -0.000888889)
(0.000202375 0.000726412 -0.000944444)
(0.000344347 0.000667654 -0.000944444)
(0.00042219 0.000666445 -0.001)
(0.000447979 0.000682251 -0.001)
(0.000461357 0.00069068 -0.00105556)
(0.000472956 0.000700552 -0.00105556)
(0.000478396 0.000709623 -0.00105556)
(0.000476275 0.000719154 -0.00111111)
(0.000461376 0.000730839 -0.00105556)
(0.000433195 0.000743601 -0.00111111)
(0.000398877 0.000758027 -0.00105556)
(0.000360092 0.000771242 -0.00105556)
(0.000273104 0.000768998 -0.00105556)
(9.95915e-05 0.000774195 -0.000888889)
(-0.000119748 0.000776672 -0.000777778)
(-0.000322012 0.000782998 -0.000611111)
(-0.000469741 0.000785494 -0.0005)
(-0.000545608 0.000776387 -0.000444444)
(-0.000544491 0.000748078 -0.000444444)
(-0.000462432 0.000695425 -0.000483333)
(-0.000323441 0.000618628 -0.000533333)
(-0.000205769 0.000542768 -0.000594444)
(-0.000167985 0.000574194 -0.000611111)
(-0.000137318 0.000602229 -0.000633333)
(-1.89589e-05 0.000592404 -0.000688889)
(0.000146801 0.000559222 -0.00075)
(0.000286403 0.00051185 -0.000761111)
(0.000349611 0.000445017 -0.000688889)
(0.000353188 0.00043143 -0.000677778)
(0.000350972 0.000428626 -0.000683333)
(0.000348411 0.000437996 -0.000688889)
(0.000344314 0.000450176 -0.000694444)
(0.000338953 0.000463039 -0.000705556)
(0.000335832 0.000477611 -0.000722222)
(0.000328143 0.000491374 -0.000738889)
(0.000306493 0.000502201 -0.000733333)
(0.000301955 0.000529432 -0.000777778)
(0.000287035 0.000510371 -0.000761111)
(0.000209247 0.00047753 -0.000677778)
(9.3525e-05 0.000431771 -0.000561111)
(-3.66576e-05 0.000387808 -0.000422222)
(-0.000168968 0.000349491 -0.000283333)
(-0.000294713 0.000316869 -0.000161111)
(-0.000413656 0.000289262 -3.88889e-05)
(-0.00053013 0.000265912 7.77778e-05)
(-0.00064768 0.000244542 0.000188889)
(-0.000747124 0.000217596 0.0003)
(-0.000774527 0.000168145 0.000355556)
(-0.000527789 8.1254e-05 0.000233333)
(-0.000246113 4.11749e-05 0.00014)
(-0.000168833 1.65727e-05 8.27778e-05)
(-0.000196239 2.04277e-05 9.55556e-05)
(-0.000286445 5.10172e-05 0.000161667)
(-0.000616446 0.000101414 0.000272222)
(-0.000909571 0.000213083 0.000405556)
(-0.000887265 0.000280782 0.000344444)
(-0.000785657 0.000321682 0.000222222)
(-0.000668248 0.000356092 9.44444e-05)
(-0.000556618 0.000392776 -2.77778e-05)
(-0.000444141 0.000433395 -0.000161111)
(-0.000320466 0.000477085 -0.0003)
(-0.000176569 0.000522779 -0.000455556)
(-8.79993e-06 0.000569643 -0.000611111)
(0.000176157 0.000614886 -0.000833333)
(0.000357164 0.000649343 -0.001)
(0.000467666 0.000658776 -0.00111111)
(0.000480769 0.000619582 -0.00105556)
(0.000475132 0.000585942 -0.001)
(0.000502049 0.000576232 -0.001)
(0.000529924 0.000574346 -0.00105556)
(0.00053562 0.000567859 -0.00105556)
(0.000529407 0.00056069 -0.001)
(0.00051639 0.000555915 -0.001)
(0.000493848 0.000550543 -0.001)
(0.000446601 0.00054511 -0.001)
(0.000347449 0.000514329 -0.000944444)
(0.000248822 0.000491225 -0.000888889)
(0.000129585 0.000614854 -0.000888889)
(-6.53047e-05 0.000741394 -0.000833333)
(-0.000252836 0.000835088 -0.000833333)
(-0.000379701 0.000892208 -0.000722222)
(-0.000444791 0.000919672 -0.000722222)
(-0.000453977 0.000924423 -0.000722222)
(-0.000407793 0.00090757 -0.000777778)
(-0.000300156 0.000863848 -0.000777778)
(-0.000126273 0.000785384 -0.000888889)
(7.87761e-05 0.000670828 -0.000888889)
(0.000230115 0.00053376 -0.000944444)
(0.000327514 0.000500076 -0.000944444)
(0.000428739 0.000545265 -0.001)
(0.000492016 0.00055977 -0.001)
(0.000508038 0.00057468 -0.00105556)
(0.000518215 0.000581586 -0.00105556)
(0.000523142 0.000589231 -0.00105556)
(0.000521804 0.000597756 -0.00105556)
(0.000509203 0.0006079 -0.00105556)
(0.000478559 0.000610566 -0.00105556)
(0.000436164 0.000604163 -0.001)
(0.000399324 0.000627417 -0.00105556)
(0.000337484 0.000687809 -0.00105556)
(0.000174194 0.000750562 -0.001)
(-8.62593e-05 0.000799964 -0.000833333)
(-0.000346054 0.000830847 -0.000666667)
(-0.000530112 0.000842903 -0.0005)
(-0.000619281 0.000841476 -0.000444444)
(-0.000621345 0.000825753 -0.000394444)
(-0.000553418 0.000800737 -0.000411111)
(-0.00044057 0.00077316 -0.00045)
(-0.000339123 0.000743681 -0.000494444)
(-0.000276639 0.000717785 -0.000527778)
(-0.00018033 0.00068424 -0.000594444)
(3.30697e-05 0.000618283 -0.000705556)
(0.000229716 0.00051622 -0.000788889)
(0.000333237 0.000348998 -0.000755556)
(0.000373838 0.000301525 -0.000694444)
(0.000373365 0.000310616 -0.000672222)
(0.000379736 0.000319017 -0.000666667)
(0.000378415 0.000325631 -0.000672222)
(0.000375628 0.000335778 -0.000683333)
(0.000368833 0.000346574 -0.000688889)
(0.000363613 0.000360326 -0.000711111)
(0.00033783 0.00036619 -0.0007)
(0.000292731 0.000354077 -0.000677778)
(0.000299327 0.000404397 -0.000711111)
(0.000327772 0.000464586 -0.000772222)
(0.000263269 0.000476794 -0.000744444)
(0.000116815 0.000462161 -0.000616667)
(-4.43112e-05 0.00043189 -0.000461111)
(-0.00019612 0.000396866 -0.000305556)
(-0.000329701 0.000362216 -0.000166667)
(-0.000448626 0.000330004 -3.88889e-05)
(-0.000561262 0.000301042 7.22222e-05)
(-0.000673833 0.000273804 0.000194444)
(-0.000768251 0.000240615 0.0003)
(-0.000790043 0.000183622 0.000355556)
(-0.000535727 8.76873e-05 0.000233333)
(-0.000248736 4.42157e-05 0.00014)
(-0.000170027 1.77286e-05 8.27778e-05)
(-0.000186112 1.87769e-05 9.11111e-05)
(-0.000268985 4.55674e-05 0.000152778)
(-0.000570051 8.69762e-05 0.000255556)
(-0.00084196 0.000176001 0.000394444)
(-0.000837234 0.000235863 0.000344444)
(-0.00076597 0.000279299 0.000238889)
(-0.000677536 0.000319596 0.000133333)
(-0.000589654 0.000362107 2.22222e-05)
(-0.000495659 0.000407392 -9.44444e-05)
(-0.000383588 0.000454157 -0.000227778)
(-0.000240555 0.000501393 -0.000377778)
(-6.05179e-05 0.000549677 -0.000611111)
(0.000149863 0.000598272 -0.000777778)
(0.000377768 0.000630578 -0.000944444)
(0.000473639 0.000632708 -0.00105556)
(0.000446492 0.000572054 -0.001)
(0.000475872 0.000577437 -0.001)
(0.000537201 0.000619464 -0.001)
(0.000563707 0.000650089 -0.001)
(0.000564318 0.000654559 -0.00105556)
(0.000562896 0.000647156 -0.001)
(0.000557336 0.000632202 -0.001)
(0.000536253 0.000600994 -0.001)
(0.000473606 0.000579669 -0.001)
(0.000370156 0.000654856 -0.000944444)
(0.000247526 0.000717974 -0.000944444)
(7.71326e-05 0.000789479 -0.000833333)
(-0.000123875 0.000853754 -0.000722222)
(-0.00028595 0.00089617 -0.000666667)
(-0.000392105 0.000919206 -0.000611111)
(-0.000447972 0.000929838 -0.000555556)
(-0.000457935 0.000932658 -0.0005)
(-0.00042172 0.000927944 -0.000555556)
(-0.000333527 0.000911623 -0.000666667)
(-0.000184799 0.000876767 -0.000722222)
(2.23202e-05 0.000819249 -0.000833333)
(0.000215548 0.000747788 -0.000944444)
(0.000345801 0.000698954 -0.001)
(0.000466364 0.000617118 -0.001)
(0.000537866 0.000599381 -0.001)
(0.000552706 0.0006465 -0.001)
(0.000562467 0.000673388 -0.00105556)
(0.000561714 0.00068221 -0.00105556)
(0.000558316 0.000690235 -0.00105556)
(0.000548153 0.000692792 -0.00105556)
(0.00052113 0.000667728 -0.001)
(0.000462011 0.000631984 -0.001)
(0.000400165 0.00062568 -0.00105556)
(0.000366611 0.000716622 -0.001)
(0.00019876 0.000762275 -0.000944444)
(-0.000106869 0.000775993 -0.000722222)
(-0.000366864 0.0007619 -0.0005)
(-0.00054325 0.000730625 -0.000333333)
(-0.000627946 0.000707178 -0.000238889)
(-0.000634424 0.000684408 -0.000205556)
(-0.000592251 0.000668962 -0.000216667)
(-0.000531768 0.00066834 -0.000244444)
(-0.00045732 0.000675311 -0.000288889)
(-0.000352538 0.000644104 -0.000344444)
(-0.000207445 0.000617984 -0.000433333)
(-2.31902e-06 0.000592701 -0.000572222)
(0.000248286 0.00055316 -0.000722222)
(0.000388999 0.000474448 -0.000805556)
(0.000395292 0.000401831 -0.000716667)
(0.000388176 0.000367581 -0.0007)
(0.000395825 0.000395535 -0.000677778)