/*--------------------------------*- C++ -*----------------------------------*\
  =========                 |
  \\      /  F ield         | OpenFOAM: The Open Source CFD Toolbox
   \\    /   O peration     | Website:  https://openfoam.org
    \\  /    A nd           | Version:  7
     \\/     M anipulation  |
\*---------------------------------------------------------------------------*/
FoamFile
{
    version     2.0;
    format      ascii;
    class       volScalarField;
    location    "1000";
    object      eta;
}
// * * * * * * * * * * * * * * * * * * * * * * * * * * * * * * * * * * * * * //

dimensions      [1 -1 -1 0 0 0 0];

internalField   nonuniform List<scalar> 
46980
(
23460.1
19242.4
16220.5
13784.8
12221.1
11281.3
10696.2
10314.3
10054.5
9872.07
9741.04
9645.67
9575.92
9525.05
9488.29
9462.11
9443.8
9431.22
9422.73
9417.07
9413.29
9410.76
9409.05
9407.85
9406.99
9406.36
9405.89
9405.55
9405.3
9405.12
9405.03
9405.02
9405.09
9405.22
9405.42
9405.67
9405.99
9406.36
9406.83
9407.35
9408
9408.78
9409.77
9411.05
9412.74
9415
9418
9421.9
9426.78
9432.6
9439.19
9446.21
9453.27
9459.96
9465.91
9470.92
9474.92
9477.92
9480.01
9481.33
9482.06
9482.35
9482.4
9482.43
9482.65
9483.29
9484.59
9486.87
9490.65
9496.67
9506.07
9520.4
9541.84
9573.19
9618.21
9681.96
9771.44
9897.01
10074.6
10330.3
10708.9
11291.4
12229.1
13790.9
16224.7
19245
23461.2
19020.5
20435.2
16744.3
12087.4
10020.7
8892.9
8194.52
7732.66
7413.89
7187.29
7023.14
6903.07
6815.2
6751.35
6705.6
6673.43
6651.27
6636.31
6626.36
6619.76
6615.33
6612.32
6610.2
6608.62
6607.43
6606.48
6605.72
6605.11
6604.65
6604.32
6604.14
6604.1
6604.2
6604.44
6604.81
6605.28
6605.84
6606.5
6607.24
6608.07
6609.01
6610.08
6611.35
6612.95
6615.02
6617.78
6621.53
6626.56
6633.13
6641.27
6650.79
6661.2
6671.86
6681.99
6690.94
6698.28
6703.93
6708.03
6710.79
6712.49
6713.32
6713.54
6713.45
6713.39
6713.62
6714.38
6715.9
6718.53
6722.83
6729.69
6740.51
6757.31
6782.9
6821.01
6876.49
6955.7
7067.32
7223.69
7443.49
7756.63
8214.05
8909.13
10034.6
12099.8
16755.3
20442.7
19022.9
16493.6
17393.9
12564.8
9572.4
8491.41
7766.55
7248.67
6872.97
6596.82
6391.74
6238.64
6124.54
6040.31
5979.22
5935.97
5906.24
5886.39
5873.41
5864.98
5859.48
5855.78
5853.21
5851.32
5849.87
5848.69
5847.7
5846.88
5846.2
5845.68
5845.29
5845.06
5845.02
5845.14
5845.42
5845.86
5846.41
5847.06
5847.82
5848.65
5849.55
5850.53
5851.61
5852.87
5854.39
5856.31
5858.9
5862.52
5867.65
5874.77
5884.17
5895.75
5908.94
5922.76
5936
5947.5
5956.5
5962.87
5967.07
5969.78
5971.22
5971.55
5971.14
5970.49
5970.06
5970.06
5970.61
5971.81
5973.9
5977.31
5982.8
5991.61
6005.68
6027.89
6062.07
6113.05
6186.78
6290.69
6434.49
6631.57
6901.17
7271.74
7785.71
8507.62
9586.27
12578.1
17403.5
16496.6
15105.6
15148.5
10430.1
8544.22
8400.33
8280.45
8112.02
7931.51
7759.95
7607.84
7479.84
7377.25
7299.39
7244.03
7207.65
7185.89
7174.12
7168.14
7164.99
7163.07
7161.62
7160.33
7159.1
7157.86
7156.63
7155.4
7154.25
7153.2
7152.35
7151.74
7151.4
7151.32
7151.5
7151.96
7152.66
7153.6
7154.68
7155.86
7157.1
7158.33
7159.58
7160.87
7162.19
7163.57
7165.15
7167.15
7170.17
7175.41
7184.6
7199.5
7220.95
7248.15
7278.68
7308.91
7334.97
7353.79
7364.2
7368.3
7370.75
7370.4
7367.26
7363.17
7359.89
7358.15
7357.55
7357.57
7357.87
7358.27
7358.76
7359.53
7361.18
7365.16
7374.61
7394.45
7430.39
7487.68
7570.39
7680.56
7817.51
7976.62
8147.04
8307.22
8420.27
8558.7
10443
15158.3
15108.7
14330.9
13886.9
9316.47
7886.66
8340.69
8859.88
9236.01
9486
9638.93
9722.75
9764.29
9787.03
9808.84
9840.19
9883.08
9932.35
9979.27
10016.4
10042
10058.1
10067.5
10072.6
10074.9
10075.6
10075.2
10073.9
10071.6
10069.1
10067.3
10066.5
10066.3
10066.2
10066.2
10066.6
10068
10070.3
10073
10075.2
10076.9
10078.4
10079.9
10081.1
10081.7
10081.4
10079.7
10076.1
10070.4
10064.6
10065.6
10084.2
10128.9
10202.1
10297.5
10401.9
10498
10568.9
10601.4
10598.7
10593.3
10572
10540.8
10515.2
10502.7
10499.7
10499.3
10498.5
10495.4
10488.6
10476
10454.5
10420.1
10368
10296.2
10212.4
10127.3
10046.7
9967.67
9876.62
9751.66
9565.85
9290.41
8895.36
8362.79
7900.38
9327.94
13895.9
14333.7
13914.6
13209.5
8719.29
7491.34
8281.48
9319.41
10282.9
11130.7
11869.7
12514.7
13088.1
13620.1
14142.1
14674.2
15207.2
15693.7
16076.1
16333.1
16491
16585.5
16641.2
16673.1
16690.9
16700.8
16707.2
16710.2
16697.5
16681.6
16675.9
16679.4
16684.7
16685.6
16681.1
16675.5
16676.9
16689.9
16706.7
16712
16709.9
16709.4
16709.7
16708.9
16704.8
16695.2
16676.7
16642.8
16580.2
16475.5
16344.9
16254.3
16278.1
16464.6
16817.8
17302.8
17852.8
18374.2
18744.7
18860.4
18672.7
18347.6
18049.1
17892.9
17880.9
17910
17927.8
17930.8
17916.6
17880.5
17812
17692.2
17493.4
17167.2
16648.6
15957.4
15181.3
14401.2
13641.5
12886.4
12106.4
11273.2
10363.9
9362.87
8303.77
7503.22
8728.6
13216.5
13916.6
13728
12906.4
8450.46
7302.2
8244.77
9586.37
10973.4
12340.2
13710.4
15144.4
16734.8
18613.8
20951.6
23918.9
27504
31104
33754.8
35302.4
36166
36674.9
36977.9
37151.7
37250.7
37314.5
37381.7
37473.8
37288.6
37052.4
37015.2
37128.7
37248.1
37269.8
37176.4
37042.5
37007.7
37185.3
37430.5
37439.3
37352
37326.5
37315.2
37299.3
37264.4
37193.1
37072
36872.1
36441.6
35462.2
33724.1
31672.3
30111.5
29553.1
30147.6
32038.6
35630.8
42082.4
54334.3
71542.9
57975.1
46988.5
42403.1
41505.5
42408.6
42961.4
43235.1
43312.1
43251.3
43047.1
42640.3
41916.6
40734.3
38744.9
35232
30132.7
25074.3
21136.8
18215.2
15979
14159.5
12568.8
11082.4
9634.64
8264.96
7311.14
8456.73
12910.8
13728.9
13715.1
12894.6
8440.32
7293.04
8235.39
9578.73
10976.8
12382.5
13862
15567.1
17782.8
21056.6
26523.2
36768.7
57912.2
98213.5
138555
148630
149080
152098
154264
155353
156395
158831
167287
168491
102096
70829.7
57127.9
50685.5
47911.6
47512.7
49318.9
54146.6
64487.8
87239
142978
177060
161772
156786
155586
154703
154123
152878
150615
151319
156683
141788
96156.9
59047
39610
30208.6
25445.6
23033.6
21989.1
21769
22105.3
23003.3
24753.8
28400.7
36951
61191.2
169012
248082
236677
234333
230481
227745
226768
218765
211935
240973
158050
72225.2
39326.4
26462.4
20302.4
16789.2
14450.6
12654.5
11093.7
9623.92
8250.66
7297.85
8442.6
12895.5
13714.6
13866.6
13172.5
8689.37
7465.24
8255.06
9293.53
10271.7
11180.8
12093.7
13153.8
14634.3
17065.1
21572.6
31280.4
57901.8
156342
210212
170889
162791
166476
167903
166883
166367
146444
69569.9
38666.5
27311.2
22424.7
20091.3
18937.4
18425.9
18351.3
18686.4
19563.2
21365.3
25043
33069
52691.7
109730
167212
166503
166846
167386
165996
161984
167495
193813
164233
60204.1
31129.3
20720.9
15957.6
13437.9
12192.5
11639.3
11432.5
11433.1
11631.8
12138.4
13240.3
15790.2
22056
38818.3
105054
224160
217335
219946
220375
218577
209945
211399
269050
234546
63239.1
31717.5
21314.9
16650.7
14135.2
12562.4
11394
10360.3
9324.47
8262.23
7464.72
8686.8
13169.3
13864.5
14207.6
13819.8
9270.72
7849.81
8304.3
8815.7
9189.29
9464.75
9708.98
10022.1
10581.2
11722.1
14013.6
18538.3
28929.8
59750.5
169511
187982
167499
161630
163463
163532
124815
47752.6
24772.7
16360.7
13029.7
11608.9
10942.4
10618.2
10476.2
10455.4
10547.5
10792.6
11307.1
12385
14793.1
20406.7
34007.5
76044.4
159841
162774
163975
161030
164583
187050
155587
54193.7
25705.7
16013.5
11721.6
9529.17
8197.67
7698.86
7537.74
7492.55
7497.4
7543.76
7663.89
7970.23
8868.57
11550.8
17423.2
32832.1
98057.2
226115
213569
212098
207593
217989
242026
209074
59750.6
28599.3
18391.2
13970.5
11715
10560.7
9956.02
9571.32
9228.83
8824.62
8300.85
7843
9262.64
13812.3
14204
14784.9
15049.8
10393.9
8520.75
8375.76
8237.8
8049.93
7856.67
7689.35
7584.43
7620.56
8022
9260.24
11461.2
15913.1
26027.9
55194
155233
194949
169504
162945
126220
43119.6
20871
12757.8
9072.56
7866.65
7460.04
7300.37
7232.95
7206.22
7202.04
7217.95
7265.28
7380.71
7673.91
8522.61
11004.5
16211.4
28711.2
69766
165674
160895
161982
186251
165729
55036.1
24271.8
14201.4
9831.04
7641.3
6596.04
5804.37
5806.65
5870.43
5913.43
5930
5920.5
5885.55
5833.22
5893.49
7308.5
10337.7
16752.5
34466.8
121944
199506
198366
214135
262164
173829
50920
24508.5
15413.6
11379.6
9340.96
8162.26
7779.99
7756.87
7873.76
8046.37
8226.21
8361.92
8507.41
10380
15038.1
14780
15610.6
17329.2
12723.3
9693.1
8576.65
7812.06
7255.89
6837.9
6509.19
6235.86
6001.54
5884.03
6619.43
7725.47
10144
14803.1
25083.7
53291.6
140435
194694
134054
46833.5
21353.1
12233.3
8023.22
5865.05
5700.72
5744.02
5789.83
5821.11
5837.25
5839.15
5826.64
5797.97
5750.79
5690.12
5737.93
7075.98
9877.28
15507.8
29448.5
79458.1
172161
183426
195505
66366.7
26422.1
14369.6
9341.23
6812.22
5626.52
5506.28
5955.25
6571.44
6784.8
6880.63
6909.24
6879.9
6777.5
6528.85
5723.45
5389.44
7197.17
10934.4
19247.8
45097.6
213578
233103
273041
168041
47822.7
22547.1
13769.9
9785.02
7733.52
6753.94
6051.06
6190.35
6465.17
6802.86
7228.14
7789.14
8556.6
9674.56
12703.4
17314
15605.2
16512
21037.4
19124.5
13442.1
10891.2
9533.47
8689.44
8109.66
7668.34
7281.08
6849.69
6044.24
5522.99
5683.3
7190.77
9987.79
15155.2
25841.6
48369
70341.9
49515.8
25120.7
13968.9
8620.79
5807.59
5459.33
6336.35
6631.27
6764.56
6833.11
6864.06
6867.01
6842.43
6781.78
6661.3
6404.54
5605.96
5264.78
6974.37
10385.3
17367.8
35309.4
96217.2
165899
86087.2
32831.9
16574.9
10084.1
6880.35
5293.82
5742.62
7204.34
10175.9
12042.5
12796.4
13078
13159.9
13091.5
12747.1
11648.8
8907.84
5756.56
5831.03
8395.09
13608.3
26029.7
68799.6
215568
140770
48397.7
22759.7
13484.2
9203.41
6916.84
5795.93
5712.34
6242.64
7069.57
7560.49
8045.83
8647.85
9503.33
10866.4
13418.3
19097.3
21020
16506.5
17198.7
24089.7
26617.4
22743.4
19144
17025.4
15726.9
14847.9
14157.1
13444.4
12350.7
10205.7
7145.83
5635.65
5654.2
7577.8
10915
16684.8
26060.1
33890.9
27926.6
17740.9
11224.9
7563.45
5725.59
6420.85
10225.9
12301
12919.7
13099.2
13145.4
13141
13095.6
12965.4
12593.6
11496.2
8781.62
5652.42
5699.3
8088.99
12631.1
21812
41734.7
61176.4
40224.5
21168.2
12394
8017.31
5704.63
5700.58
8959.39
12832.5
17282.9
20750.4
22720.8
23593.5
23763.9
23232.3
21488.6
17609.5
11646.6
6616.82
5847.25
7618.82
11333.6
18780.5
35016.1
56987.9
43899
24237.8
14406.5
9542.23
6870.3
5462.46
5946.16
7452.98
10532.6
12655.5
13820.4
14687
15637.6
16966.7
19097.2
22697.6
26573.4
24069.6
17193.4
17656.9
26079.6
32923.7
33774.3
31071.6
28574.4
26843.3
25582.3
24437.4
22970.1
20564.8
16670.3
11679.6
7117.08
5551.93
6553.7
8897.2
12782.7
18266.3
22479.3
20257.6
14658
10144.4
7307.17
5878.44
6831.85
12373.5
18558.8
22021.2
23406.6
23860.9
23923.1
23714.5
23031.1
21265.3
17439
11537.1
6535.17
5747.26
7396.77
10682.7
16492.3
25946.8
32905.4
25586.9
16284.4
10601.5
7378.71
5756.73
6545.76
11566
18313.5
25194.1
31169.4
35422
37564.9
37427.4
34787.6
29364
21351.4
12798.5
6965.63
5994.36
7421.96
10358.6
15490.6
23595.1
29949.3
24504.3
16187.9
10770.7
7580.62
5778.28
5967.35
9323.92
13184.5
17636.3
21179.1
23494.5
25097.6
26576.1
28405.1
30943.2
33665.9
32857.3
26058.7
17652.1
17953.4
27267.2
36962.8
43014.2
43777.5
42165.2
40333.4
38601
36622.5
33806.4
29523.7
23546.8
16581.7
10199.7
6106.72
5873.22
7785.97
10857.3
14771.4
17658
16729.8
13147.5
9701.76
7308.26
6060.84
7114.27
13161.6
22022.7
29984.7
35098.1
37679.1
38345
37335.4
34411.2
29058.6
21204.4
12732.8
6916.63
5924.79
7245.78
9846.66
13983.8
19504.9
22785.5
19396.3
13907.9
9816.21
7241.73
5931.91
6920.69
12701.1
21501.3
31460.3
41126.9
49085.4
53247.4
51702.1
44816.6
34551.9
23138
13321.2
7216.2
6158.11
7424.35
9914.33
13762.2
18524.2
20848.6
17580.6
12660.8
8978.26
6706.56
5762.49
7444.93
13071.3
19685.7
25949.9
31102.6
34855.3
37524
39673.7
41734.7
43478.4
42828.5
36887.7
27248.1
17949.4
18149.1
27994.3
39308.9
49011.6
54065.8
54816.8
53564.7
51419.3
48338.4
43829.3
37442.1
29266.9
20318
12301.3
6937.81
6052.19
7492.68
9957.33
12956.1
15131.2
14743.4
12269.3
9522.3
7420.14
6268.27
7382.72
13612.7
23614.5
35041.3
45018.8
51807.7
54095.5
51276.3
44194.9
34236.3
23072.3
13322.4
7211.03
6123.93
7280.31
9454.37
12569.5
16133.7
17963.1
16097.8
12541.1
9443.42
7280.93
6129.46
7213.85
13287.9
23112.2
35491.7
49041.3
61480.1
67970.8
64052.8
52092.9
37528.3
24043.4
13697.5
7461.52
6346.44
7521.38
9702.31
12700.8
15749.7
16673.6
14336
10855.5
7951.06
6069.85
6335.8
10557.5
17490
25771.7
33878.9
40769
46032.2
49818
52492.6
54109.7
53631.2
48802.7
39240.5
27978.1
18145.7
18285.8
28478.3
40757.8
52602.8
60871.1
64286.4
64178.6
61926.6
57882
51804.3
43470
33279.2
22610.6
13409
7430.7
6351.8
7546.24
9559.68
11870.9
13512.9
13366.3
11621.2
9438.48
7594.09
6516.51
7689.01
14047.6
24535.6
37988.1
52066.6
63423.5
67781.9
62829.1
51270.4
37335.4
24123.5
13796.9
7518.93
6358.16
7401.38
9236.26
11591.2
13958.5
15055.7
13946.9
11581.9
9233.59
7403.69
6362.51
7521.22
13770.9
24087.5
37945.1
54528.3
70791.9
78985.4
72872.9
56792.7
39289.7
24712.9
14106
7749.89
6578.18
7677.3
9579.77
11908.6
13922.6
14275.1
12537.3
9962.13
7687.88
6285.84
7212.24
12672.7
20956.7
30735
40504.9
48990.6
55565.3
60189.8
62960.8
63495.3
60430.2
52416.2
40700.8
28464.9
18283.1
18392.6
28841.3
41768.4
54878.4
65065.7
70422.3
71475.9
69431
64825.5
57613.3
47765.2
36010.3
24131.4
14230.8
7914.84
6707.35
7729.92
9348.15
11059.1
12230.7
12188.2
10999.4
9353.95
7808.47
6829.71
8081.77
14604.1
25392.8
39932
56606.2
70991.7
76616.5
70451.7
55896.6
39374.8
25026.3
14357.1
7902.7
6654.32
7575.37
9063.69
10760.2
12280.3
12932.3
12277.3
10758.3
9064.51
7578.19
6657.77
7904.57
14339.2
24981.3
39681.8
58038
76139.6
84540.4
77598.6
59656.2
40647
25482.7
14649.6
8129.01
6878.22
7874.9
9459.07
11179.9
12480.6
12591.8
11360.7
9512.36
7761.51
6648.7
7799.24
13910.6
23276.8
34397.9
45596.7
55359.3
62853.2
67888.5
70372.6
69715.5
64688.5
54725.2
41722.2
28830.6
18390.3
18492.1
29159.2
42563.9
56403.7
67528.3
73925.5
75805.5
74138.1
69438.7
61701.6
50973.7
38222.6
25549.6
15146.6
8512.23
7149.54
7967.15
9150.76
10279.1
11010.7
11008.2
10291.4
9199.97
8047.06
7242.84
8629.59
15409.8
26536.1
41698.5
59391
74193.6
79590.5
73772.9
58779.6
41188.6
26176.3
15152.2
8436.89
7049.91
7785.12
8860.97
9937.32
10801.3
11147.1
10801.3
9938.15
8863.04
7787.93
7052.74
8438.41
15140
26142.2
41380.1
60234.8
77516.9
84521.2
78425.8
61391.5
42150.3
26597.8
15447.3
8666.88
7281.45
8099.23
9274.42
10397.7
11150.9
11167.3
10401.1
9206.05
7959.34
7102.79
8440.56
14984
25099.9
37245
49492.2
60041.8
67922.6
72922.2
74924.6
73360.5
67227.6
56280.9
42526.8
29150.7
18490.3
18607.4
29488.6
43237.3
57311.2
68502.9
75101
77383.2
76169.9
71877.7
64416.9
53691.8
40605.2
27399.2
16451
9362.65
7733.95
8215.85
8863.71
9405.68
9731.39
9740.72
9437.11
8919.49
8287.33
7808.6
9453.78
16674.3
28308.4
43819.6
60865.5
73374.6
77402.5
73093.8
60368.7
43337.8
27938.8
16399.6
9245.35
7599.98
8011.86
8573.18
9053.19
9394.27
9521.1
9394.97
9054.68
8575.41
8014.45
7602.38
9246.62
16391.2
27920.3
43505
61411
75347.4
80123.9
75850.4
62222.5
44167
28365.3
16707
9484.24
7840.07
8327.69
8969.61
9495.72
9804.4
9790.56
9445.03
8871.89
8194.52
7695.81
9312.51
16351.5
27132.9
39987.8
52694.2
63257
70798.2
75292.8
76739.5
74681.3
68273.8
57214.7
43207.4
29481.7
18606
18769.3
29878.1
43761.2
57366.3
67639.8
73595.4
75791.6
74994.6
71570.6
65352.6
55917.8
43576.6
30257.3
18613.9
10733.9
8547.57
8430.77
8426.53
8422.96
8426.88
8436.65
8452.25
8473.96
8490.66
8611.05
10814.7
18843.4
31195.7
46404.9
60614.8
69063.8
71485.9
68906
60265.8
45969.1
30813
18546.1
10588.6
8391.55
8223.61
8162.14
8106.18
8070.84
8059.35
8071.54
8107.54
8164.09
8225.89
8393.69
10589.7
18540.6
30813.5
46153.9
61002.5
70115.5
72827.9
70359.7
61514.1
46719
31261.1
18874.2
10841
8637.56
8521.17
8505.99
8482.87
8462.93
8445.25
8429.19
8417.21
8406.48
8514.68
10693.7
18539
30067.6
43147.5
55242.3
64589.5
70871.7
74425.8
75367.5
73310.3
67476.5
57293.2
43737.5
29872.5
18768.2
19030.4
30363.7
43900.6
55910.1
64103.2
68520.6
70024.6
69392.4
67017.8
62794.1
56139.7
46509
34594.2
22656.6
13395
9789.75
8680.18
8033.63
7657.62
7487.15
7494.53
7679.57
8069.45
8728.13
9847.4
13482.8
22939.5
35516
48226
57335.3
61793.5
63018
61717.8
57144.3
47902.7
35148.2
22616.9
13233.1
9626.55
8492.01
7812.95
7393.84
7165.23
7092.71
7165.77
7394.9
7814.51
8493.98
9628.64
13234.2
22615.5
35177.5
48100.1
57587.9
62278.2
63605.4
62383.1
57846
48505.8
35603.2
22973.4
13507.9
9870.58
8750.77
8089.77
7696.12
7505.87
7491.77
7654
8020.53
8657.36
9759.42
13357
22585.3
34430.1
46192.8
55713.5
62359.2
66636.3
69082.3
69787.2
68353.2
64000
55859.2
43882.5
30359.3
19029.6
19494.2
30915.6
42997.1
51824
56801.6
58947.9
59306.4
58582.2
57094.3
54812.3
51365.5
46084.6
38482.1
29272.6
20337.6
13377.9
10885.6
9691.78
9072.85
8805.53
8812.58
9093.8
9726.07
10933
13442.1
20462.9
29559.2
38891.4
46058.6
50173.6
52080.8
52620.3
52048
50092
45895.2
38634.1
29257.9
20178.4
13199.4
10691.3
9467.01
8799.32
8457.89
8352.53
8458.43
8800.38
9468.6
10693.5
13202.1
20181.4
29269.3
38692
46037.2
50291.6
52264.3
52841.2
52306.2
50395
46236.8
38989.7
29604.6
20492.6
13466.9
10954.4
9743.99
9107.33
8820.64
8806.89
9066.4
9676.59
10861.1
13343.3
20289.3
29192.2
38343.2
45892.2
51160.3
54626
56936.9
58453.3
59204.1
58870.7
56748.8
51793.9
42984.6
30912.3
19493.6
20389
31212.8
39640.9
43765.9
45193.9
45322.5
44902.4
44252.1
43453.6
42458
41112.5
39137.2
36121.4
31740.8
26266.7
20756.2
17626.5
16001.9
15159.6
14797.2
14804.4
15180.9
16036.2
17672.9
20815
26333.3
31751.4
35900.3
38485.8
39904.5
40599.1
40804.6
40585.9
39873.7
38426.1
35792.6
31581.9
26112.2
20568.6
17408.9
15743.1
14837.6
14378.8
14238
14379.4
14838.8
15744.8
17411.3
20572
26119.3
31601.2
35832.8
38483.6
39938.2
40652.3
40871.9
40668.2
39975.1
38554
35956.4
31790.2
26361
20838.6
17693.6
16053.4
15193.4
14811.1
14796.9
15151.4
15985.3
17601.3
20722.6
26223.7
31683.7
36051.7
39065.3
41046.9
42402
43407
44213.6
44871.1
45297.4
45174.9
43752.9
39633.9
31210.4
20388.6
22291.4
29709.9
31790.9
31733.6
31247.3
30762
30355.5
30011.8
29692.9
29353.8
28940.8
28381.2
27572
26383.5
24733.7
22772.9
21130.7
20048
19425.2
19145.3
19149
19436
20063.8
21146.6
22778.2
24705.6
26288.1
27373.1
28048.6
28444.9
28651.8
28714.8
28647.3
28434.7
28030.1
27341
26234.3
24620.9
22657.1
20991.3
19872.3
19197.1
18840.2
18729.1
18840.7
19197.9
19873.5
20993.1
22660.1
24626.4
26243.4
27353.5
28044.5
28449.8
28662.8
28730.6
28668
28461.5
28065.4
27389.5
26302.8
24718.4
22789.9
21157.4
20072.8
19442.5
19152.1
19144.2
19419.6
20038
21116.8
22756.2
24715.6
26364.4
27553.2
28364.3
28926
29341.4
29682.6
30003.4
30348.6
30756.4
31242.8
31730.2
31788.5
29708.7
22291.1
25856.9
22673.1
20736.5
19794.7
19295.5
19011
18835.2
18714.4
18618
18526.1
18423
18293.4
18121
17888.6
17585.9
17226.9
16865.4
16571
16374.6
16278.8
16279.5
16376.1
16572
16863.7
17218.1
17564.5
17848.7
18056.8
18199.1
18289.4
18339.1
18354.5
18337.9
18286.8
18194.4
18049.2
17836.2
17544.6
17187.8
16820.4
16513.1
16296.7
16172.1
16131.7
16172.2
16297
16513.6
16821.2
17189
17546.3
17838.4
18051.8
18197.2
18289.6
18340.7
18357.4
18341.9
18292.5
18202.1
18060
17851.8
17567.4
17220.7
16866.1
16574
16377.2
16279.7
16278
16372.6
16568
16861.8
17222.8
17581.7
17884.7
18117.3
18290.2
18420.3
18523.9
18616.1
18712.9
18834
19010
19294.8
19794.1
20736.1
22672.8
25856.7
23454.5
19238.8
16217.5
13782.3
12219
11279.4
10694.5
10312.6
10052.9
9870.42
9739.39
9644.02
9574.28
9523.43
9486.67
9460.51
9442.19
9429.62
9421.1
9415.4
9411.58
9408.98
9407.18
9405.89
9404.95
9404.21
9403.65
9403.22
9402.89
9402.67
9402.55
9402.53
9402.61
9402.8
9403.06
9403.41
9403.81
9404.3
9404.85
9405.46
9406.18
9407.02
9408.04
9409.32
9411
9413.22
9416.15
9419.97
9424.76
9430.49
9436.98
9443.94
9450.96
9457.62
9463.6
9468.65
9472.7
9475.78
9477.94
9479.36
9480.2
9480.6
9480.77
9480.9
9481.22
9481.94
9483.31
9485.64
9489.45
9495.49
9504.88
9519.21
9540.62
9571.96
9616.95
9680.66
9770.13
9895.68
10073.2
10328.9
10707.4
11289.9
12227.3
13788.8
16222.1
19241.9
23456.4
19016.8
20432.4
16741.9
12085.8
10019.6
8892.14
8193.91
7732.16
7413.46
7186.92
7022.8
6902.77
6814.94
6751.12
6705.39
6673.24
6651.1
6636.16
6626.19
6619.58
6615.15
6612.11
6609.94
6608.35
6607.11
6606.12
6605.32
6604.69
6604.19
6603.84
6603.64
6603.6
6603.72
6603.97
6604.37
6604.87
6605.48
6606.17
6606.95
6607.82
6608.78
6609.87
6611.15
6612.75
6614.82
6617.56
6621.28
6626.29
6632.81
6640.91
6650.38
6660.76
6671.39
6681.51
6690.45
6697.8
6703.47
6707.59
6710.38
6712.12
6712.99
6713.26
6713.21
6713.19
6713.47
6714.25
6715.79
6718.44
6722.74
6729.61
6740.43
6757.21
6782.79
6820.86
6876.31
6955.49
7067.07
7223.4
7443.15
7756.22
8213.55
8908.49
10033.7
12098.5
16753.2
20440.2
19019.7
16490.4
17391.3
12563
9571.35
8490.78
7766.14
7248.4
6872.8
6596.72
6391.7
6238.66
6124.61
6040.43
5979.38
5936.17
5906.47
5886.64
5873.67
5865.26
5859.74
5856.05
5853.45
5851.55
5850.06
5848.85
5847.84
5846.99
5846.29
5845.73
5845.32
5845.09
5845.05
5845.18
5845.49
5845.94
5846.51
5847.2
5847.98
5848.85
5849.78
5850.78
5851.88
5853.14
5854.66
5856.58
5859.15
5862.76
5867.85
5874.95
5884.3
5895.84
5908.99
5922.79
5936
5947.49
5956.51
5962.88
5967.1
5969.83
5971.3
5971.66
5971.27
5970.67
5970.26
5970.29
5970.85
5972.06
5974.17
5977.58
5983.05
5991.85
6005.91
6028.1
6062.25
6113.21
6186.88
6290.75
6434.51
6631.51
6901.05
7271.52
7785.38
8507.08
9585.37
12576.5
17401.5
16493.8
15102.7
15146.3
10428.9
8543.56
8400.03
8280.37
8112.1
7931.73
7760.29
7608.31
7480.41
7377.93
7300.17
7244.91
7208.63
7186.95
7175.23
7169.28
7166.17
7164.26
7162.8
7161.51
7160.25
7159
7157.73
7156.47
7155.26
7154.18
7153.29
7152.65
7152.29
7152.21
7152.41
7152.89
7153.65
7154.62
7155.75
7156.99
7158.26
7159.53
7160.8
7162.11
7163.43
7164.83
7166.4
7168.38
7171.38
7176.58
7185.71
7200.53
7221.9
7249.02
7279.5
7309.7
7335.75
7354.58
7365.02
7369.13
7371.6
7371.27
7368.17
7364.13
7360.89
7359.19
7358.59
7358.62
7358.91
7359.3
7359.78
7360.53
7362.15
7366.11
7375.5
7395.28
7431.14
7488.34
7570.94
7681.01
7817.85
7976.86
8147.15
8307.18
8420.03
8558.14
10441.9
15156.6
15106.1
14327.9
13885.1
9315.51
7886.2
8340.63
8860.05
9236.39
9486.62
9639.8
9723.89
9765.72
9788.76
9810.89
9842.56
9885.74
9935.28
9982.38
10019.6
10045.2
10061.4
10070.9
10075.9
10078.2
10078.8
10078.3
10076.9
10074.5
10071.9
10070
10069.1
10068.9
10068.8
10068.8
10069.3
10070.8
10073.2
10076.1
10078.5
10080.3
10081.9
10083.4
10084.6
10085.3
10085
10083.3
10079.7
10073.9
10068.1
10068.9
10087.2
10131.7
10204.6
10299.9
10404.1
10500.3
10571.2
10603.9
10601.3
10595.7
10574.5
10543.5
10518
10505.7
10502.7
10502.3
10501.4
10498.3
10491.4
10478.7
10457.2
10422.8
10370.6
10298.7
10214.7
10129.3
10048.5
9969.11
9877.78
9752.56
9566.49
9290.82
8895.56
8362.75
7899.99
9327.12
13894.2
14331.1
13911.6
13207.6
8718.47
7491
8281.58
9319.78
10283.5
11131.8
11871.2
12516.9
13091.1
13624.2
14147.3
14680.7
15214.9
15702.3
16085
16342.1
16500.2
16594.9
16650.7
16682.6
16700.3
16710.1
16716.2
16718.9
16706.1
16690.2
16684.2
16687.5
16692.7
16693.6
16689.2
16684
16685.8
16699.1
16716.2
16721.4
16719.8
16719.7
16720.1
16719.3
16715.5
16705.9
16687.3
16653.3
16590.8
16486.4
16355.6
16264.2
16287
16472.4
16824.8
17309.3
17859.3
18381.2
18753
18870.2
18682.5
18357.2
18059.2
17903.5
17890.7
17917.6
17934.5
17937
17922.6
17886.3
17817.7
17698
17499.1
17172.6
16655.2
15963.8
15186.9
14405.7
13645
12888.8
12108
11274.3
10364.6
9363.26
8303.87
7502.94
8727.88
13214.9
13914.1
13725
12904.6
8449.69
7301.91
8244.95
9586.89
10974.3
12341.5
13712.4
15147.7
16740.1
18622.3
20965.2
23939.6
27530.9
31127.6
33769.8
35320.6
36187.1
36696.3
36998.9
37172.4
37271.2
37335.5
37403.4
37501.4
37326.6
37097.3
37059.2
37170.2
37287.9
37309.6
37217.9
37087.2
37055.2
37229.3
37464.6
37464.1
37376.6
37350.3
37339.9
37325.4
37291.7
37221.9
37102.1
36899.9
36466.5
35497.2
33774.9
31725
30154.5
29585.7
30170.6
32051.6
35629.8
42053.7
54243.3
71501.5
58067.7
47073.6
42487.6
41581.1
42451
42975.5
43234.9
43309.2
43249.4
43045.4
42638.8
41916.5
40730.1
38735.4
35235.1
30151.2
25091.8
21148.4
18222.3
15983.2
14162.1
12570.4
11083.4
9635.15
8265.15
7310.9
8456.06
12909.2
13726.4
13712.2
12892.9
8439.55
7292.77
8235.58
9579.24
10977.6
12383.8
13864.2
15570.7
17789.2
21068.7
26547.3
36815.3
57927.2
97233.4
133863
142588
142960
145198
146747
147454
148246
150436
157612
158644
101156
70748.2
57151.2
50724.4
47952.1
47553.2
49359.2
54178.7
64461.2
86800.9
137873
164466
152755
148444
147380
146881
146632
145848
144324
145082
149062
136908
95760.7
59224.2
39700.7
30247
25464.3
23044.7
21997.2
21776.9
22115
23016.2
24768.9
28422.2
36990.6
61230.7
162248
217705
210594
209114
207202
205810
205202
200592
197179
215203
153051
72048.5
39355.7
26481.7
20311.9
16794.1
14453.3
12656
11094.7
9624.45
8250.85
7297.62
8441.94
12894
13712.1
13863.7
13170.6
8688.56
7464.91
8255.16
9293.92
10272.4
11181.9
12095.4
13156.4
14638.7
17073
21588.3
31310.8
57855.5
148397
186162
161192
154617
156434
157015
156089
155687
140034
69434.6
38684.8
27328.2
22438.1
20101.8
18946.3
18434
18359.4
18695.2
19573.5
21378.4
25060.1
33088.9
52675.8
107907
155812
155422
155823
156514
155883
153776
158558
176299
154958
60260.3
31175.5
20739
15965.8
13442.4
12195.6
11641.6
11434.7
11435.5
11634.4
12141.2
13244
15796.8
22069.6
38825.8
103970
202187
198135
200145
200942
200230
195731
197941
233321
211781
63160.7
31735.7
21326.7
16656.9
14138.6
12564.4
11395.2
10361
9324.88
8262.34
7464.43
8686.09
13167.7
13862
14204.7
13818
9269.8
7849.38
8304.24
8815.88
9189.69
9465.41
9709.95
10023.6
10583.4
11725.7
14019.8
18550.5
28949
59613.8
158943
173161
158265
153331
153911
153734
121839
47773.9
24789.5
16368.8
13034.6
11612.3
10945.1
10620.6
10478.5
10457.6
10549.9
10795.3
11310.5
12389.6
14800.6
20420.3
34032
75780.4
150493
152799
153952
152651
156152
172319
148430
54176.2
25729.9
16023.9
11726.4
9531.67
8199.07
7699.8
7538.52
7493.28
7498.14
7544.55
7664.77
7971.35
8870.31
11554.5
17431.8
32837.5
97366.2
203098
195205
195256
193864
201782
218212
194851
59640.2
28607.3
18399.7
13975.4
11717.8
10562.4
9957.1
9572.01
9229.25
8824.82
8300.83
7842.63
9261.84
13810.7
14201.4
14782.2
15047.7
10392.7
8520.12
8375.5
8237.75
8050.03
7856.9
7689.74
7584.99
7621.39
8023.36
9262.7
11465.9
15922.2
26040.1
55081.3
147765
177058
159720
154525
123510
43162.8
20887.3
12763.5
9075.04
7868.19
7461.19
7301.35
7233.84
7207.07
7202.89
7218.82
7266.24
7381.85
7675.38
8524.89
11009.2
16222.6
28737.2
69668.1
155546
152371
154011
171874
156417
54986.8
24289.2
14209.6
9834.7
7643.01
6596.89
5804.66
5806.78
5870.51
5913.52
5930.11
5920.63
5885.75
5833.51
5893.98
7309.74
10340.8
16760.4
34478.2
120524
186530
186948
199366
228750
166547
50859.1
24514.7
15419.6
11383.1
9342.91
8163.36
7780.64
7757.29
7874.01
8046.48
8226.17
8361.7
8506.86
10379
15036.3
14777.6
15608.1
17327
12721.5
9692.06
8576.03
7811.66
7255.63
6837.74
6509.12
6235.86
6001.66
5884.35
6620.34
7727.29
10147.8
14811.1
25096.2
53203.8
135259
176571
130546
46875.2
21370.6
12238.8
8025.28
5865.74
5701.12
5744.3
5790.03
5821.27
5837.38
5839.28
5826.79
5798.14
5751.02
5690.46
5738.53
7077.58
9881.26
15518.2
29476.5
79237.5
161156
169496
177214
66181.5
26436.4
14377.7
9344.65
6813.62
5626.95
5506.32
5955.07
6571.18
6784.51
6880.36
6909
6879.71
6777.39
6528.85
5723.62
5389.86
7198.41
10937.8
19256.7
45094.9
196967
211092
233446
161229
47770.2
22554.8
13775.1
9787.78
7734.9
6754.65
6051.28
6190.4
6465.12
6802.74
7227.92
7788.8
8556.08
9673.64
12701.8
17312.1
15603
16509.8
21035.4
19121.5
13440.1
10890
9532.62
8688.79
8109.13
7667.91
7280.71
6849.38
6044.04
5523.07
5683.81
7192.37
9991.52
15163.4
25857.4
48345.8
70178.7
49548.3
25143.8
13975.9
8623.09
5808.3
5459.63
6336.4
6631.16
6764.35
6832.85
6863.76
6866.72
6842.14
6781.52
6661.12
6404.46
5606.07
5265.22
6975.94
10389.6
17380.4
35344.3
95504.1
156084
85559.4
32845.7
16584.6
10088.1
6881.81
5294.15
5742.49
7203.77
10174.7
12040.9
12794.8
13076.4
13158.3
13090.2
12746
11648.2
8907.77
5756.78
5831.58
8396.81
13613.2
26039.1
68667.3
197365
137314
48344.2
22768.1
13489.4
9205.94
6917.94
5796.27
5712.36
6242.43
7069.26
7560.11
8045.38
8647.29
9502.59
10865.4
13416.7
19094.7
21018.3
16504.6
17197
24088.2
26614
22739.4
19140.9
17022.9
15724.8
14846
14155.3
13442.7
12349
10204.4
7145.28
5635.62
5654.69
7579.55
10919.2
16694.4
26080.4
33919.7
27955
17752.1
11228.8
7564.82
5726.02
6421
10225.5
12299.9
12918.2
13097.5
13143.6
13139.2
13093.7
12963.7
12592.1
11495.2
8781.2
5652.55
5699.9
8091.08
12637.2
21831.7
41789.4
61172.8
40259.3
21183.4
12399.6
8019.32
5705.14
5700.54
8958.44
12830.4
17279.5
20746.3
22716.3
23589
23759.8
23229.1
21486.5
17608.5
11646.4
6616.97
5847.63
7619.97
11336.8
18789.4
35033.6
56943.4
43894.9
24249.4
14412.4
9544.89
6871.39
5462.67
5945.98
7452.42
10531.4
12654.1
13819
14685.4
15635.8
16964.5
19094.6
22694.2
26570.5
24068.4
17191.9
17655.3
26078.8
32921.3
33769.2
31066.1
28569.2
26838.6
25577.9
24433.1
22965.9
20561
16667.1
11677.6
7116.53
5552
6554.58
8899.45
12787.7
18277.3
22496.8
20271.9
14664.6
10147
7308.15
5878.74
6831.87
12372.8
18556.9
22017.9
23402.2
23855.8
23917.9
23709.5
23026.8
21262.2
17437
11536.2
6535.15
5747.61
7398.08
10686.4
16502.6
25975.7
32949.8
25612
16293.8
10605
7379.98
5756.98
6545.54
11564.4
18309.9
25188.8
31162.6
35413.9
37556.9
37420.9
34783.4
29361.5
21350.1
12798.1
6965.69
5994.65
7422.84
10360.9
15496.9
23610.6
29971.7
24519.8
16195.3
10773.9
7581.94
5778.6
5967.18
9322.89
13182.5
17633.2
21175.8
23490.9
25093.9
26572.2
28400.8
30938.6
33661.8
32855.5
26058
17650.8
17952.1
27266.7
36961.9
43010.5
43771.1
42158
40326.3
38593.9
36615.8
33800
29517.9
23542
16578.4
10198.4
6106.51
5873.51
7787.22
10860.3
14777.3
17667.1
16737.6
13151.7
9703.62
7309.02
6061.03
7114.2
13160.7
22020.2
29980.6
35092.1
37671.1
38336.4
37327.7
34405.2
29054.6
21201.7
12731.7
6916.51
5925.02
7246.72
9849.11
13989.8
19519.1
22806.1
19409.7
13913.7
9818.61
7242.64
5932.05
6920.39
12699.5
21497
31453.5
41117.9
49074.8
53237.5
51694.9
44812.2
34548.9
23136.2
13320.7
7216.18
6158.32
7425.07
9916.08
13766.5
18533.5
20861
17589.1
12664.7
8980.03
6707.23
5762.49
7444.38
13069.3
19682.1
25945.3
31097.5
34849.8
37518.4
39667.9
41728.8
43473.2
42825.5
36887.1
27247.7
17948.3
18148
27994
39308.7
49009.7
54060.8
54809.8
53556.9
51411.4
48330.7
43822
37435.4
29261.2
20314.1
12299.6
6937.49
6052.28
7493.46
9959.17
12959.5
15136.1
14748
12272.1
9523.71