/*--------------------------------*- C++ -*----------------------------------*\
  =========                 |
  \\      /  F ield         | OpenFOAM: The Open Source CFD Toolbox
   \\    /   O peration     | Website:  https://openfoam.org
    \\  /    A nd           | Version:  7
     \\/     M anipulation  |
\*---------------------------------------------------------------------------*/
FoamFile
{
    version     2.0;
    format      ascii;
    class       volScalarField;
    location    "1000";
    object      nu;
}
// * * * * * * * * * * * * * * * * * * * * * * * * * * * * * * * * * * * * * //

dimensions      [0 2 -1 0 0 0 0];

internalField   nonuniform List<scalar> 
46980
(
21.3274
17.4931
14.7459
12.5316
11.1101
10.2557
9.72382
9.37662
9.14046
8.97461
8.85549
8.76879
8.70538
8.65914
8.62572
8.60192
8.58527
8.57384
8.56612
8.56097
8.55754
8.55524
8.55368
8.55259
8.55181
8.55124
8.55081
8.5505
8.55027
8.55011
8.55003
8.55002
8.55008
8.5502
8.55038
8.55061
8.5509
8.55124
8.55166
8.55214
8.55273
8.55344
8.55434
8.5555
8.55704
8.55909
8.56182
8.56536
8.5698
8.57509
8.58108
8.58746
8.59388
8.59996
8.60537
8.60993
8.61356
8.61629
8.61819
8.61939
8.62005
8.62032
8.62036
8.62039
8.62059
8.62117
8.62235
8.62443
8.62786
8.63334
8.64188
8.65491
8.6744
8.7029
8.74383
8.80178
8.88313
8.99728
9.15874
9.39118
9.73536
10.2649
11.1174
12.5372
14.7497
17.4955
21.3284
17.2914
18.5775
15.2221
10.9885
9.10971
8.08445
7.44956
7.02969
6.7399
6.5339
6.38467
6.27552
6.19564
6.13759
6.096
6.06675
6.04661
6.03301
6.02396
6.01796
6.01394
6.0112
6.00927
6.00784
6.00675
6.00589
6.0052
6.00465
6.00423
6.00393
6.00376
6.00373
6.00382
6.00404
6.00437
6.0048
6.00531
6.00591
6.00658
6.00734
6.00819
6.00916
6.01032
6.01177
6.01365
6.01616
6.01957
6.02415
6.03012
6.03752
6.04617
6.05564
6.06533
6.07454
6.08267
6.08935
6.09448
6.09821
6.10072
6.10226
6.10302
6.10322
6.10314
6.10308
6.10329
6.10398
6.10536
6.10775
6.11166
6.1179
6.12774
6.14301
6.16627
6.20092
6.25135
6.32336
6.42484
6.56699
6.76681
7.05148
7.46732
8.09921
9.12238
10.9998
15.2321
18.5843
17.2935
14.9942
15.8126
11.4225
8.70218
7.71946
7.0605
6.5897
6.24815
5.99711
5.81067
5.67149
5.56776
5.49119
5.43565
5.39634
5.36931
5.35126
5.33946
5.3318
5.3268
5.32344
5.3211
5.31938
5.31806
5.31699
5.31609
5.31535
5.31473
5.31425
5.3139
5.31369
5.31365
5.31376
5.31402
5.31442
5.31492
5.31551
5.3162
5.31695
5.31777
5.31866
5.31965
5.32079
5.32217
5.32392
5.32627
5.32956
5.33423
5.3407
5.34925
5.35977
5.37176
5.38433
5.39636
5.40682
5.415
5.42079
5.42461
5.42707
5.42838
5.42868
5.42831
5.42772
5.42733
5.42733
5.42783
5.42892
5.43082
5.43392
5.43891
5.44692
5.45971
5.4799
5.51097
5.55732
5.62435
5.71881
5.84954
6.0287
6.27379
6.61067
7.07792
7.7342
8.71479
11.4346
15.8214
14.9969
13.7324
13.7714
9.48194
7.76747
7.63666
7.52768
7.37456
7.21046
7.0545
6.91622
6.79985
6.70659
6.63581
6.58548
6.55241
6.53263
6.52193
6.51649
6.51363
6.51188
6.51056
6.50939
6.50827
6.50715
6.50603
6.50491
6.50386
6.50291
6.50214
6.50158
6.50127
6.5012
6.50136
6.50178
6.50242
6.50327
6.50425
6.50533
6.50645
6.50757
6.50871
6.50988
6.51108
6.51234
6.51377
6.51559
6.51834
6.5231
6.53145
6.545
6.5645
6.58923
6.61698
6.64446
6.66815
6.68526
6.69473
6.69845
6.70068
6.70036
6.69751
6.69379
6.69081
6.68923
6.68868
6.6887
6.68897
6.68934
6.68978
6.69048
6.69198
6.6956
6.70419
6.72223
6.7549
6.80698
6.88217
6.98233
7.10683
7.25147
7.4064
7.55202
7.65479
7.78064
9.49363
13.7803
13.7352
13.0281
12.6245
8.46952
7.16969
7.58245
8.05444
8.39637
8.62364
8.76266
8.83886
8.87663
8.8973
8.91713
8.94563
8.98462
9.02941
9.07206
9.10581
9.12905
9.1437
9.1523
9.15691
9.15902
9.1596
9.15924
9.15805
9.15597
9.15372
9.15213
9.15139
9.15119
9.15112
9.15112
9.1515
9.15269
9.15478
9.15723
9.15928
9.16083
9.16222
9.16353
9.1646
9.16516
9.16489
9.16336
9.16007
9.15489
9.14966
9.15057
9.16742
9.20812
9.27465
9.3614
9.45624
9.54365
9.60806
9.63763
9.6352
9.63024
9.61089
9.58254
9.55923
9.54788
9.54515
9.54483
9.54408
9.54131
9.53513
9.52366
9.50413
9.47285
9.42547
9.36018
9.284
9.20663
9.13339
9.06152
8.97875
8.86515
8.69623
8.44583
8.08669
7.60254
7.18216
8.47995
12.6326
13.0306
12.6496
12.0086
7.92663
6.81031
7.52862
8.47219
9.34806
10.1188
10.7906
11.377
11.8983
12.3819
12.8565
13.3402
13.8247
14.267
14.6146
14.8483
14.9918
15.0777
15.1284
15.1574
15.1735
15.1825
15.1884
15.1911
15.1795
15.1651
15.1599
15.1631
15.1679
15.1687
15.1646
15.1595
15.1608
15.1726
15.1879
15.1927
15.1908
15.1904
15.1906
15.1899
15.1862
15.1775
15.1606
15.1298
15.0729
14.9777
14.859
14.7766
14.7983
14.9678
15.2889
15.7298
16.2298
16.7038
17.0406
17.1458
16.9752
16.6796
16.4083
16.2663
16.2554
16.2818
16.298
16.3007
16.2878
16.255
16.1927
16.0838
15.9031
15.6065
15.1351
14.5067
13.8012
13.092
12.4014
11.7149
11.0058
10.2484
9.42173
8.5117
7.54888
6.82111
7.93509
12.015
12.6515
12.48
11.7331
7.68224
6.63836
7.49525
8.71488
9.97585
11.2184
12.464
13.7676
15.2135
16.9216
19.0469
21.7445
25.0036
28.2764
30.6862
32.0931
32.8782
33.3408
33.6163
33.7743
33.8643
33.9223
33.9834
34.0671
33.8987
33.684
33.6502
33.7534
33.8619
33.8816
33.7967
33.675
33.6434
33.8048
34.0277
34.0357
33.9564
33.9332
33.9229
33.9085
33.8767
33.8119
33.7018
33.5201
33.1287
32.2384
30.6583
28.793
27.3741
26.8665
27.4069
29.126
32.3916
38.2567
49.3948
65.039
52.7046
42.7168
38.5483
37.7323
38.5533
39.0558
39.3046
39.3746
39.3194
39.1337
38.7639
38.106
37.0312
35.2226
32.0291
27.3934
22.7948
19.2153
16.5593
14.5264
12.8723
11.4262
10.0749
8.75876
7.5136
6.64649
7.68794
11.7371
12.4808
12.4683
11.7224
7.67302
6.63004
7.48672
8.70794
9.97887
11.2568
12.6018
14.1519
16.1662
19.1424
24.112
33.4261
52.6475
89.285
125.959
135.118
135.527
138.271
140.24
141.23
142.177
144.392
152.079
153.174
92.8148
64.3906
51.9345
46.0777
43.556
43.1934
44.8354
49.2242
58.6253
79.3082
129.98
160.964
147.065
142.533
141.442
140.639
140.112
138.98
136.923
137.563
142.439
128.898
87.4154
53.6791
36.0091
27.4624
23.1324
20.9396
19.9901
19.79
20.0957
20.9121
22.5035
25.8188
33.5918
55.6284
153.647
225.529
215.161
213.03
209.528
207.041
206.153
198.877
192.668
219.066
143.682
65.6593
35.7513
24.0567
18.4567
15.2629
13.1369
11.5041
10.0852
8.74902
7.5006
6.63441
7.67509
11.7232
12.4678
12.606
11.975
7.89943
6.78658
7.5046
8.44866
9.3379
10.1644
10.9943
11.958
13.3039
15.5137
19.6115
28.4367
52.638
142.129
191.102
155.354
147.992
151.342
152.639
151.712
151.243
133.131
63.2454
35.1514
24.8284
20.3861
18.2648
17.2158
16.7508
16.683
16.9876
17.7847
19.423
22.7664
30.0627
47.9015
99.7545
152.011
151.366
151.678
152.169
150.905
147.258
152.268
176.194
149.303
54.731
28.2994
18.8372
14.5069
12.2163
11.0841
10.5812
10.3932
10.3937
10.5744
11.0349
12.0366
14.3547
20.0509
35.2894
95.5037
203.782
197.577
199.951
200.341
198.706
190.859
192.181
244.591
213.224
57.4901
28.8341
19.3772
15.137
12.8502
11.4204
10.3582
9.41843
8.47679
7.51112
6.78611
7.89709
11.9721
12.6041
12.916
12.5635
8.42793
7.13619
7.54936
8.01427
8.3539
8.60432
8.82635
9.11104
9.61929
10.6565
12.7396
16.853
26.2998
54.3186
154.101
170.893
152.272
146.936
148.603
148.665
113.468
43.4115
22.5206
14.8734
11.8452
10.5535
9.94763
9.65291
9.52385
9.50488
9.58865
9.81142
10.2792
11.2591
13.4483
18.5515
30.9159
69.1313
145.31
147.976
149.068
146.391
149.621
170.045
141.443
49.267
23.3688
14.5577
10.656
8.66288
7.45243
6.99896
6.85249
6.81141
6.81582
6.85796
6.96717
7.24566
8.06234
10.5007
15.8393
29.8474
89.1429
205.559
194.154
192.816
188.721
198.172
220.024
190.067
54.3187
25.9994
16.7193
12.7005
10.65
9.60068
9.05093
8.7012
8.38985
8.02238
7.54623
7.13
8.42058
12.5566
12.9127
13.4408
13.6816
9.449
7.74614
7.61433
7.48891
7.31812
7.14243
6.99032
6.89494
6.92778
7.29273
8.4184
10.4193
14.4665
23.6617
50.1764
141.121
177.226
154.095
148.132
114.745
39.1996
18.9736
11.598
8.24778
7.1515
6.78185
6.6367
6.57541
6.55111
6.54731
6.56177
6.6048
6.70974
6.97628
7.74783
10.0041
14.7376
26.1011
63.4236
150.613
146.268
147.256
169.319
150.663
50.0328
22.0653
12.9104
8.93731
6.94664
5.9964
5.2767
5.27877
5.33675
5.37585
5.39091
5.38227
5.3505
5.30293
5.35772
6.64409
9.39792
15.2295
31.3335
110.858
181.369
180.333
194.668
238.331
158.026
46.2909
22.2805
14.0124
10.3451
8.49178
7.42024
7.07272
7.0517
7.15796
7.31488
7.47837
7.60175
7.73401
9.43636
13.671
13.4364
14.1915
15.7538
11.5666
8.81191
7.79695
7.10187
6.59626
6.21627
5.91745
5.66896
5.45595
5.34912
6.01766
7.02315
9.2218
13.4574
22.8034
48.4469
127.668
176.995
121.867
42.5759
19.4119
11.1212
7.29384
5.33186
5.18247
5.22184
5.26348
5.29192
5.30659
5.30832
5.29695
5.27088
5.22799
5.17284
5.2163
6.43271
8.97935
14.098
26.7714
72.2346
156.51
166.751
177.732
60.3334
24.0201
13.0633
8.49203
6.19293
5.11502
5.00571
5.41386
5.97404
6.168
6.25512
6.28113
6.25445
6.16136
5.93532
5.20314
4.89949
6.54288
9.94037
17.498
40.9978
194.162
211.912
248.219
152.765
43.4752
20.4974
12.5181
8.89547
7.03047
6.13995
5.50096
5.62759
5.87743
6.18442
6.57104
7.08104
7.77873
8.79505
11.5485
15.74
14.1865
15.0109
19.1249
17.3859
12.2201
9.90108
8.66679
7.89949
7.37242
6.97122
6.61916
6.22699
5.49476
5.0209
5.16664
6.53706
9.07981
13.7775
23.4924
43.9718
63.9472
45.0144
22.837
12.699
7.83708
5.27963
4.96303
5.76032
6.02843
6.1496
6.21192
6.24005
6.24274
6.22039
6.16525
6.05573
5.82231
5.09633
4.78616
6.34034
9.44114
15.7889
32.0995
87.4702
150.817
78.2611
29.8472
15.0681
9.16739
6.25486
4.81256
5.22056
6.5494
9.25086
10.9477
11.6331
11.8891
11.9635
11.9014
11.5883
10.5898
8.09804
5.23324
5.30094
7.6319
12.3712
23.6634
62.5451
195.971
127.973
43.9979
20.6906
12.2584
8.36674
6.28804
5.26903
5.19304
5.67513
6.42688
6.87317
7.31439
7.86168
8.63939
9.87856
12.1985
17.3612
19.1091
15.0059
15.6352
21.8997
24.1976
20.6758
17.4036
15.4776
14.2972
13.4981
12.8701
12.2222
11.2279
9.27794
6.49621
5.12332
5.14018
6.88891
9.92274
15.168
23.691
30.8099
25.3878
16.1281
10.2045
6.87586
5.20508
5.83714
9.29625
11.1827
11.7452
11.9084
11.9504
11.9464
11.9051
11.7867
11.4487
10.4511
7.98329
5.13856
5.18118
7.35363
11.4828
19.8291
37.9406
55.6149
36.5677
19.2438
11.2673
7.28846
5.18603
5.18235
8.1449
11.6659
15.7117
18.864
20.6553
21.4486
21.6035
21.1203
19.5351
16.0086
10.5878
6.01529
5.31568
6.9262
10.3033
17.0732
31.8328
51.8072
39.9082
22.0344
13.0968
8.67475
6.24573
4.96587
5.4056
6.77544
9.57509
11.505
12.564
13.3518
14.216
15.4243
17.3611
20.6342
24.1576
21.8815
15.6304
16.0517
23.7087
29.9306
30.7039
28.2469
25.9767
24.403
23.2566
22.2158
20.8819
18.6953
15.1548
10.6178
6.47007
5.04721
5.95791
8.08836
11.6206
16.6057
20.4357
18.416
13.3255
9.2222
6.64288
5.34404
6.21077
11.2486
16.8716
20.0193
21.2787
21.6917
21.7483
21.5586
20.9374
19.3321
15.8536
10.4883
5.94106
5.22478
6.72434
9.71158
14.993
23.588
29.914
23.2608
14.804
9.63774
6.70792
5.23339
5.95069
10.5145
16.6486
22.9037
28.3358
32.2018
34.1499
34.0249
31.6251
26.6945
19.4104
11.635
6.33239
5.44942
6.74724
9.41687
14.0824
21.4501
27.2266
22.2766
14.7163
9.79151
6.89147
5.25298
5.42486
8.47629
11.9859
16.033
19.2537
21.3586
22.816
24.1601
25.8228
28.1302
30.6054
29.8703
23.6897
16.0474
16.3213
24.7884
33.6025
39.1038
39.7977
38.332
36.6667
35.0918
33.2932
30.7331
26.8397
21.4062
15.0743
9.27248
5.55156
5.33929
7.07815
9.87029
13.4285
16.0527
15.2089
11.9523
8.81978
6.64387
5.50985
6.46752
11.9651
20.0206
27.2588
31.9074
34.2537
34.8591
33.9413
31.2829
26.4169
19.2767
11.5753
6.28785
5.38617
6.58707
8.95151
12.7125
17.7317
20.7141
17.633
12.6435
8.92383
6.58339
5.39265
6.29154
11.5465
19.5466
28.6003
37.3881
44.6231
48.4067
47.0019
40.7424
31.4108
21.0345
12.1102
6.56018
5.59828
6.74941
9.01303
12.5111
16.8402
18.9533
15.9824
11.5098
8.16205
6.09687
5.23863
6.76812
11.883
17.8961
23.5908
28.2751
31.6866
34.1127
36.067
37.9406
39.5258
38.935
33.5343
24.771
16.3176
16.4992
25.4494
35.7354
44.556
49.1507
49.8335
48.6952
46.7448
43.944
39.8448
34.0383
26.6063
18.4709
11.183
6.3071
5.50199
6.81153
9.05212
11.7783
13.7556
13.4031
11.1539
8.65664
6.74558
5.69843
6.71156
12.3752
21.4677
31.8557
40.9262
47.0979
49.1777
46.6148
40.1772
31.1239
20.9748
12.1113
6.55548
5.56721
6.61846
8.59488
11.4268
14.667
16.3301
14.6344
11.401
8.58493
6.61903
5.57224
6.55805
12.0799
21.0111
32.2652
44.583
55.891
61.7916
58.2298
47.3572
34.1166
21.8576
12.4523
6.7832
5.76949
6.83762
8.82028
11.5462
14.3179
15.1578
13.0327
9.86865
7.22824
5.51805
5.75982
9.59774
15.9
23.4288
30.799
37.0627
41.8475
45.2891
47.7205
49.1906
48.7556
44.3661
35.6732
25.4346
16.4961
16.6235
25.8894
37.0525
47.8207
55.3374
58.4422
58.3442
56.2969
52.62
47.0948
39.5182
30.2538
20.5551
12.19
6.75518
5.77436
6.86022
8.69062
10.7917
12.2845
12.1512
10.5647
8.58044
6.90372
5.9241
6.99001
12.7705
22.3051
34.5346
47.3333
57.6577
61.6199
57.1174
46.6095
33.9413
21.9305
12.5426
6.83539
5.78015
6.72853
8.3966
10.5375
12.6895
13.687
12.679
10.529
8.39417
6.73063
5.7841
6.83747
12.519
21.8977
34.4955
49.5712
64.3563
71.8049
66.2481
51.6297
35.7179
22.4663
12.8236
7.04535
5.98016
6.97936
8.70888
10.826
12.6569
12.9774
11.3975
9.05648
6.98898
5.7144
6.55658
11.5206
19.0515
27.9409
36.8226
44.5369
50.5139
54.718
57.2371
57.723
54.9365
47.6511
37.0007
25.8772
16.621
16.7205
26.2194
37.9713
49.8895
59.1506
64.0203
64.9781
63.1191
58.9323
52.3757
43.4229
32.7366
21.9376
12.9371
7.19531
6.09759
7.0272
8.49832
10.0537
11.1188
11.0802
9.99941
8.50359
7.09861
6.20883
7.34706
13.2765
23.0844
36.3018
51.4602
64.5379
69.6514
64.047
50.8151
35.7953
22.7512
13.0519
7.18427
6.04938
6.8867
8.23972
9.78196
11.1639
11.7566
11.1612
9.78024
8.24046
6.88926
6.05252
7.18597
13.0356
22.7103
36.0744
52.7618
69.2178
76.8549
70.5442
54.2329
36.9518
23.1661
13.3178
7.39001
6.25293
7.159
8.59915
10.1635
11.346
11.4471
10.3279
8.6476
7.05592
6.04427
7.09022
12.646
21.1607
31.2708
41.4515
50.3266
57.1393
61.7168
63.9751
63.3777
58.8077
49.7502
37.9293
26.2096
16.7185
16.811
26.5084
38.6945
51.2761
61.3894
67.205
68.9141
67.3983
63.1261
56.0924
46.3397
34.7478
23.2269
13.7696
7.73839
6.49958
7.24286
8.31887
9.34464
10.0097
10.0075
9.35584
8.36361
7.31551
6.5844
7.84508
14.0089
24.1237
37.9077
53.9918
67.4487
72.355
67.0663
53.436
37.4442
23.7966
13.7747
7.6699
6.40901
7.07738
8.05543
9.03393
9.81937
10.1337
9.81933
9.03468
8.05731
7.07994
6.41158
7.67128
13.7636
23.7656
37.6183
54.7589
70.4699
76.8375
71.2962
55.8105
38.3185
24.1798
14.043
7.87898
6.6195
7.36294
8.43129
9.45247
10.1372
10.1521
9.45553
8.36914
7.23576
6.45708
7.67324
13.6218
22.8181
33.8591
44.9929
54.5835
61.7478
66.2929
68.1133
66.6914
61.116
51.1645
38.6607
26.5006
16.8094
16.9158
26.8078
39.3066
52.1011
62.2754
68.2736
70.3484
69.2454
65.3434
58.5608
48.8107
36.9138
24.9084
14.9555
8.5115
7.03086
7.46895
8.05792
8.55062
8.84672
8.8552
8.57919
8.10863
7.53394
7.09873
8.59435
15.1585
25.7349
39.836
55.3323
66.7042
70.3659
66.4489
54.8806
39.398
25.3989
14.9087
8.40486
6.90907
7.28351
7.7938
8.23017
8.54025
8.65555
8.54088
8.23153
7.79583
7.28586
6.91125
8.40602
14.9011
25.3821
39.55
55.8282
68.4976
72.8399
68.9549
56.5659
40.1518
25.7866
15.1882
8.62204
7.12734
7.57063
8.15419
8.63247
8.91309
8.90051
8.58639
8.06535
7.44956
6.99619
8.46592
14.865
24.6663
36.3525
47.9038
57.5064
64.362
68.448
69.7632
67.8921
62.0671
52.0134
39.2795
26.8015
16.9145
17.063
27.1619
39.7829
52.1512
61.4907
66.9049
68.9015
68.1769
65.0642
59.4115
50.8344
39.6151
27.5066
16.9217
9.75805
7.77052
7.66434
7.66048
7.65724
7.6608
7.66968
7.68386
7.7036
7.71878
7.82823
9.83151
17.1304
28.3597
42.1863
55.1044
62.7853
64.9872
62.6418
54.7871
41.7901
28.0118
16.8601
9.62601
7.62868
7.47601
7.42013
7.36925
7.33713
7.32668
7.33776
7.37049
7.4219
7.47808
7.63063
9.62704
16.8551
28.0123
41.9581
55.4568
63.7414
66.2072
63.9634
55.9219
42.4718
28.4192
17.1584
9.85546
7.85233
7.74652
7.73272
7.7117
7.69357
7.6775
7.6629
7.65201
7.64225
7.74062
9.72153
16.8536
27.3342
39.225
50.2203
58.7177
64.4288
67.6598
68.5159
66.6457
61.3423
52.0847
39.7614
27.1568
17.062
17.3004
27.6034
39.9096
50.8274
58.2756
62.2915
63.6587
63.084
60.9253
57.0855
51.0361
42.2809
31.4493
20.5969
12.1773
8.89977
7.89107
7.3033
6.96147
6.8065
6.81321
6.98143
7.33586
7.93466
8.95218
12.2571
20.8541
32.2873
43.8418
52.123
56.1759
57.2891
56.1071
51.9494
43.5479
31.9529
20.5608
12.0301
8.75141
7.72001
7.10268
6.72167
6.51385
6.44792
6.51434
6.72264
7.1041
7.7218
8.75331
12.0311
20.5595
31.9795
43.7274
52.3526
56.6165
57.8231
56.7119
52.5873
44.0962
32.3665
20.8849
12.2799
8.97325
7.95525
7.35434
6.99647
6.82352
6.8107
6.95818
7.29139
7.87033
8.8722
12.1427
20.5321
31.3001
41.9935
50.6486
56.6902
60.5785
62.8021
63.4429
62.1393
58.1818
50.7811
39.8932
27.5994
17.2996
17.722
28.1051
39.0883
47.1127
51.6378
53.589
53.9149
53.2565
51.9039
49.8294
46.6959
41.8951
34.9837
26.6115
18.4887
12.1617
9.89601
8.81071
8.24805
8.00503
8.01144
8.26709
8.84188
9.93907
12.2201
18.6026
26.872
35.3558
41.8715
45.6124
47.3462
47.8366
47.3164
45.5382
41.7229
35.1219
26.5981
18.344
11.9995
9.7194
8.60637
7.99938
7.68899
7.59321
7.68948
8.00035
8.60782
9.72135
12.0019
18.3467
26.6085
35.1745
41.852
45.7196
47.513
48.0375
47.5511
45.8136
42.0335
35.4452
26.9133
18.6296
12.2426
9.95855
8.85817
8.27939
8.01876
8.00626
8.24218
8.7969
9.87373
12.1303
18.4448
26.5384
34.8575
41.7202
46.5094
49.66
51.7608
53.1394
53.8219
53.5188
51.5898
47.0854
39.0769
28.1021
17.7215
18.5355
28.3753
36.0372
39.7872
41.0854
41.2023
40.8204
40.2292
39.5033
38.5982
37.375
35.5793
32.8376
28.8553
23.8788
18.8693
16.0241
14.5472
13.7815
13.452
13.4585
13.8008
14.5784
16.0663
18.9227
23.9394
28.8649
32.6366
34.9871
36.2768
36.9083
37.0951
36.8963
36.2488
34.9328
32.5387
28.7108
23.7384
18.6987
15.8263
14.3119
13.4887
13.0716
12.9436
13.0722
13.4898
14.3135
15.8285
18.7018
23.7448
28.7284
32.5753
34.9851
36.3075
36.9566
37.1563
36.9711
36.341
35.0491
32.6876
28.9002
23.9645
18.9442
16.0851
14.594
13.8122
13.4646
13.4517
13.774
14.5321
16.0012
18.8387
23.8397
28.8034
32.7743
35.5139
37.3154
38.5473
39.4609
40.1942
40.7919
41.1795
41.0681
39.7754
36.0308
28.3731
18.5351
20.2649
27.009
28.9008
28.8487
28.4066
27.9655
27.5959
27.2835
26.9935
26.6853
26.3098
25.8011
25.0655
23.985
22.4852
20.7026
19.2097
18.2255
17.6593
17.4048
17.4082
17.6691
18.2398
19.2242
20.7075
22.4596
23.8983
24.8846
25.4987
25.859
26.0471
26.1044
26.043
25.8497
25.4819
24.8555
23.8494
22.3826
20.5974
19.083
18.0657
17.4519
17.1275
17.0265
17.1279
17.4526
18.0668
19.0846
20.6001
22.3876
23.8576
24.8668
25.495
25.8635
26.0571
26.1187
26.0618
25.8741
25.514
24.8995
23.9116
22.4713
20.7181
19.234
18.248
17.675
17.411
17.4038
17.6542
18.2164
19.1971
20.6875
22.4687
23.9676
25.0484
25.7857
26.2964
26.674
26.9842
27.2758
27.5896
27.9604
28.4025
28.8456
28.8986
27.0079
20.2646
23.5063
20.6119
18.8514
17.9952
17.5414
17.2827
17.1229
17.0131
16.9255
16.8419
16.7482
16.6304
16.4736
16.2624
15.9872
15.6608
15.3322
15.0645
14.886
14.7989
14.7995
14.8874
15.0655
15.3306
15.6528
15.9677
16.2261
16.4153
16.5446
16.6267
16.6719
16.6859
16.6708
16.6244
16.5404
16.4084
16.2147
15.9496
15.6253
15.2913
15.0119
14.8152
14.7019
14.6652
14.702
14.8155
15.0124
15.292
15.6264
15.9512
16.2167
16.4107
16.5429
16.6269
16.6734
16.6885
16.6745
16.6295
16.5474
16.4182
16.2289
15.9704
15.6552
15.3328
15.0673
14.8884
14.7997
14.7982
14.8842
15.0618
15.3289
15.6571
15.9834
16.2588
16.4703
16.6275
16.7457
16.8399
16.9237
17.0117
17.1218
17.2818
17.5407
17.9946
18.851
20.6116
23.5061
21.3223
17.4898
14.7432
12.5294
11.1082
10.254
9.72223
9.3751
9.13896
8.97311
8.85399
8.76729
8.70389
8.65766
8.62425
8.60046
8.58381
8.57238
8.56464
8.55945
8.55598
8.55362
8.55198
8.55081
8.54995
8.54928
8.54877
8.54838
8.54808
8.54788
8.54777
8.54775
8.54783
8.548
8.54824
8.54855
8.54892
8.54936
8.54986
8.55042
8.55107
8.55184
8.55276
8.55393
8.55545
8.55747
8.56014
8.56361
8.56796
8.57317
8.57907
8.5854
8.59178
8.59784
8.60327
8.60786
8.61155
8.61435
8.61631
8.6176
8.61836
8.61873
8.61888
8.619
8.61929
8.61995
8.62119
8.62331
8.62677
8.63226
8.6408
8.65383
8.67329
8.70178
8.74268
8.8006
8.88194
8.99607
9.1575
9.3899
9.73402
10.2635
11.1157
12.5353
14.7474
17.4926
21.324
17.288
18.5749
15.2199
10.9871
9.10877
8.08376
7.44901
7.02924
6.73951
6.53356
6.38436
6.27525
6.1954
6.13738
6.09581
6.06658
6.04645
6.03287
6.02381
6.0178
6.01377
6.01101
6.00904
6.00759
6.00646
6.00556
6.00484
6.00426
6.00381
6.00349
6.00331
6.00327
6.00338
6.00361
6.00397
6.00443
6.00498
6.00561
6.00632
6.00711
6.00798
6.00897
6.01014
6.01159
6.01347
6.01596
6.01935
6.0239
6.02983
6.03719
6.0458
6.05524
6.0649
6.0741
6.08223
6.08891
6.09406
6.09781
6.10035
6.10193
6.10272
6.10296
6.10292
6.1029
6.10315
6.10386
6.10526
6.10767
6.11158
6.11783
6.12766
6.14292
6.16617
6.20078
6.25119
6.32317
6.42461
6.56673
6.7665
7.05111
7.46686
8.09863
9.12157
10.9986
15.2302
18.582
17.2906
14.9913
15.8103
11.4209
8.70123
7.71889
7.06013
6.58945
6.248
5.99702
5.81064
5.67151
5.56783
5.4913
5.4358
5.39652
5.36952
5.35149
5.3397
5.33205
5.32704
5.32368
5.32132
5.31959
5.31824
5.31714
5.31622
5.31545
5.31481
5.3143
5.31393
5.31372
5.31368
5.3138
5.31408
5.31449
5.31501
5.31564
5.31635
5.31714
5.31798
5.31889
5.31989
5.32104
5.32242
5.32416
5.3265
5.32978
5.33441
5.34086
5.34936
5.35985
5.37181
5.38435
5.39636
5.40681
5.41501
5.4208
5.42464
5.42712
5.42845
5.42878
5.42843
5.42788
5.42751
5.42754
5.42805
5.42915
5.43106
5.43416
5.43914
5.44714
5.45992
5.48009
5.51114
5.55746
5.62444
5.71886
5.84955
6.02865
6.27368
6.61047
7.07762
7.73371
8.71397
11.4332
15.8195
14.9944
13.7297
13.7694
9.48082
7.76687
7.63639
7.52761
7.37464
7.21066
7.05481
6.91665
6.80037
6.70721
6.63652
6.58628
6.5533
6.53359
6.52294
6.51753
6.5147
6.51296
6.51164
6.51046
6.50932
6.50818
6.50703
6.50588
6.50478
6.5038
6.50299
6.50241
6.50208
6.50201
6.50219
6.50263
6.50332
6.5042
6.50523
6.50635
6.50751
6.50866
6.50982
6.51101
6.51221
6.51348
6.51491
6.51671
6.51944
6.52416
6.53246
6.54594
6.56536
6.59002
6.61773
6.64518
6.66886
6.68598
6.69547
6.69921
6.70145
6.70115
6.69834
6.69466
6.69172
6.69017
6.68963
6.68965
6.68992
6.69027
6.69071
6.69139
6.69286
6.69646
6.705
6.72298
6.75558
6.80758
6.88267
6.98274
7.10714
7.25169
7.4065
7.55198
7.65457
7.78013
9.49268
13.7787
13.7328
13.0254
12.6228
8.46865
7.16927
7.58239
8.05459
8.39672
8.6242
8.76345
8.8399
8.87793
8.89887
8.91899
8.94778
8.98704
9.03207
9.07489
9.10873
9.13203
9.14671
9.15533
9.15995
9.16203
9.16256
9.16212
9.16084
9.15864
9.15626
9.15456
9.15375
9.15351
9.15344
9.15349
9.15395
9.15526
9.1575
9.1601
9.16227
9.16392
9.16539
9.16675
9.16785
9.16843
9.16817
9.16663
9.16333
9.15811
9.1528
9.15355
9.17016
9.21062
9.27694
9.36352
9.45827
9.54569
9.61018
9.63989
9.63752
9.63249
9.61319
9.58497
9.56182
9.55061
9.54787
9.54752
9.54671
9.54389
9.53766
9.52613
9.50656
9.47523
9.42779
9.36243
9.28607
9.20847
9.13496
9.06283
8.9798
8.86596
8.69681
8.4462
8.08687
7.6025
7.18181
8.4792
12.6311
13.0283
12.6469
12.0069
7.92588
6.81
7.52871
8.47253
9.34866
10.1198
10.792
11.379
11.901
12.3856
12.8612
13.3461
13.8317
14.2748
14.6227
14.8565
15.0002
15.0863
15.137
15.166
15.1821
15.191
15.1965
15.199
15.1874
15.1729
15.1675
15.1705
15.1752
15.176
15.172
15.1673
15.1689
15.181
15.1965
15.2013
15.1998
15.1997
15.2001
15.1994
15.1959
15.1872
15.1703
15.1394
15.0825
14.9876
14.8687
14.7856
14.8064
14.9749
15.2953
15.7357
16.2357
16.7102
17.0482
17.1547
16.9841
16.6884
16.4175
16.2759
16.2643
16.2887
16.3041
16.3064
16.2933
16.2603
16.1979
16.0891
15.9083
15.6115
15.1411
14.5125
13.8063
13.0961
12.4045
11.7171
11.0073
10.2494
9.42236
8.51205
7.54897
6.82085
7.93444
12.0135
12.6492
12.4773
11.7315
7.68154
6.6381
7.49541
8.71535
9.97661
11.2195
12.4658
13.7706
15.2183
16.9294
19.0593
21.7633
25.0281
28.2978
30.6998
32.1096
32.8974
33.3603
33.6354
33.7931
33.8829
33.9414
34.0031
34.0922
33.9333
33.7248
33.6902
33.7911
33.8981
33.9178
33.8345
33.7156
33.6865
33.8448
34.0587
34.0583
33.9787
33.9548
33.9454
33.9322
33.9015
33.8381
33.7292
33.5454
33.1514
32.2702
30.7045
28.8409
27.4132
26.8961
27.4278
29.1378
32.3907
38.2306
49.3121
65.0014
52.7888
42.7942
38.6251
37.801
38.5918
39.0686
39.3045
39.372
39.3176
39.1322
38.7625
38.1059
37.0274
35.214
32.0319
27.4102
22.8107
19.2258
16.5657
14.5302
12.8746
11.4276
10.0758
8.75923
7.51377
6.64627
7.68733
11.7356
12.4785
12.4656
11.7208
7.67232
6.62979
7.48689
8.7084
9.97963
11.258
12.6038
14.1552
16.172
19.1534
24.1339
33.4685
52.6611
88.394
121.694
129.625
129.964
131.998
133.406
134.049
134.769
136.76
143.284
144.222
91.96
64.3165
51.9556
46.1131
43.5928
43.2302
44.872
49.2534
58.6011
78.9099
125.339
149.515
138.868
134.949
133.982
133.528
133.302
132.589
131.204
131.893
135.511
124.462
87.0552
53.8402
36.0915
27.4973
23.1494
20.9497
19.9975
19.7972
20.1045
20.9238
22.5172
25.8384
33.6278
55.6643
147.498
197.914
191.449
190.104
188.365
187.1
186.547
182.356
179.254
195.639
139.137
65.4986
35.7779
24.0743
18.4654
15.2674
13.1394
11.5055
10.0861
8.7495
7.50077
6.6342
7.67449
11.7218
12.4655
12.6034
11.9733
7.89869
6.78628
7.50469
8.44902
9.33851
10.1654
10.9958
11.9604
13.3079
15.5209
19.6257
28.4644
52.5959
134.906
169.238
146.538
140.561
142.213
142.741
141.899
141.534
127.304
63.1224
35.168
24.8438
20.3983
18.2744
17.2239
16.7582
16.6904
16.9956
17.7941
19.4349
22.7819
30.0808
47.8871
98.0969
141.647
141.293
141.657
142.285
141.712
139.796
144.144
160.272
140.871
54.7821
28.3414
18.8536
14.5144
12.2204
11.0869
10.5833
10.3952
10.3959
10.5767
11.0375
12.04
14.3607
20.0633
35.2962
94.518
183.806
180.123
181.95
182.675
182.027
177.937
179.946
212.11
192.528
57.4188
28.8506
19.3879
15.1426
12.8533
11.4222
10.3593
9.41908
8.47716
7.51122
6.78585
7.89645
11.9706
12.6018
12.9134
12.5618
8.42709
7.1358
7.54931
8.01444
8.35426
8.60492
8.82723
9.11233
9.62123
10.6597
12.7453
16.8641
26.3173
54.1944
144.494
157.419
143.877
139.392
139.919
139.758
110.763
43.4308
22.5359
14.8807
11.8496
10.5566
9.95011
9.65509
9.52591
9.50693
9.59082
9.81389
10.2823
11.2633
13.4551
18.5639
30.9382
68.8913
136.812
138.908
139.956
138.774
141.956
156.654
134.936
49.2511
23.3908
14.5672
10.6604
8.66515
7.4537
6.99982
6.8532
6.81207
6.81649
6.85868
6.96797
7.24668
8.06392
10.5041
15.8471
29.8523
88.5147
184.635
177.459
177.505
176.24
183.438
198.375
177.137
54.2184
26.0066
16.727
12.7049
10.6525
9.60221
9.05191
8.70183
8.39023
8.02256
7.54621
7.12966
8.41985
12.5552
12.9104
13.4384
13.6797
9.44794
7.74556
7.61409
7.48886
7.31821
7.14264
6.99067
6.89545
6.92854
7.29396
8.42064
10.4235
14.4747
23.6728
50.0739
134.332
160.962
145.2
140.477
112.282
39.2389
18.9885
11.6032
8.25004
7.1529
6.7829
6.63759
6.57622
6.55188
6.54808
6.56256
6.60567
6.71077
6.97762
7.7499
10.0084
14.7478
26.1247
63.3346
141.405
138.519
140.01
156.249
142.197
49.988
22.0811
12.9178
8.94064
6.94819
5.99717
5.27696
5.27889
5.33683
5.37593
5.39101
5.38239
5.35068
5.30319
5.35816
6.64522
9.40075
15.2367
31.3438
109.567
169.573
169.953
181.242
207.955
151.406
46.2355
22.2861
14.0178
10.3483
8.49355
7.42124
7.07331
7.05208
7.15819
7.31498
7.47834
7.60155
7.73351
9.43544
13.6694
13.4342
14.1892
15.7518
11.565
8.81096
7.79639
7.10151
6.59603
6.21613
5.91738
5.66896
5.45605
5.34941
6.01849
7.02481
9.22528
13.4646
22.8147
48.3671
122.963
160.519
118.678
42.6138
19.4278
11.1262
7.29571
5.33249
5.18284
5.22209
5.26366
5.29206
5.30671
5.30844
5.29708
5.27104
5.2282
5.17315
5.21685
6.43416
8.98296
14.1075
26.7968
72.0341
146.505
154.087
161.104
60.165
24.0331
13.0706
8.49514
6.1942
5.11541
5.00575
5.4137
5.9738
6.16774
6.25487
6.28091
6.25428
6.16126
5.93532
5.20329
4.89987
6.54401
9.94348
17.5061
40.9954
179.061
191.902
212.224
146.572
43.4275
20.5044
12.5228
8.89798
7.03173
6.14059
5.50116
5.62764
5.87738
6.18431
6.57084
7.08073
7.77825
8.79422
11.5471
15.7383
14.1845
15.0089
19.1231
17.3832
12.2183
9.89997
8.66602
7.8989
7.37194
6.97083
6.61883
6.22671
5.49458
5.02097
5.1671
6.53852
9.0832
13.7849
23.5067
43.9507
63.7988
45.0439
22.858
12.7054
7.83917
5.28027
4.9633
5.76036
6.02833
6.14941
6.21168
6.23978
6.24247
6.22013
6.16502
6.05556
5.82224
5.09643
4.78656
6.34176
9.44508
15.8004
32.1312
86.8219
141.895
77.7813
29.8597
15.0769
9.17096
6.25619
4.81286
5.22045
6.54888
9.24969
10.9463
11.6316
11.8876
11.9621
11.9002
11.5873
10.5893
8.09797
5.23344
5.30144
7.63346
12.3756
23.6719
62.4248
179.423
124.831
43.9493
20.6983
12.2631
8.36904
6.28904
5.26934
5.19305
5.67494
6.4266
6.87283
7.31398
7.86117
8.63872
9.8776
12.197
17.3588
19.1075
15.0042
15.6336
21.8984
24.1945
20.6722
17.4008
15.4754
14.2953
13.4964
12.8685
12.2206
11.2264
9.27673
6.49571
5.12329
5.14063
6.8905
9.92653
15.1767
23.7095
30.8361
25.4136
16.1383
10.208
6.87711
5.20547
5.83727
9.29588
11.1817
11.7438
11.9068
11.9487
11.9447
11.9034
11.7852
11.4474
10.4502
7.98291
5.13868
5.18173
7.35553
11.4884
19.847
37.9904
55.6116
36.5994
19.2576
11.2724
7.29029
5.18649
5.18231
8.14404
11.664
15.7086
18.8603
20.6512
21.4445
21.5998
21.1174
19.5332
16.0077
10.5876
6.01543
5.31603
6.92725
10.3062
17.0813
31.8487
51.7667
39.9045
22.0449
13.1022
8.67717
6.24672
4.96606
5.40544
6.77493
9.57398
11.5037
12.5627
13.3504
14.2144
15.4223
17.3587
20.6311
24.155
21.8804
15.629
16.0503
23.708
29.9285
30.6993
28.2419
25.972
24.3987
23.2526
22.2119
20.8781
18.6918
15.1519
10.616
6.46957
5.04727
5.95871
8.09041
11.6252
16.6157
20.4516
18.429
13.3315
9.22453
6.64377
5.34431
6.21079
11.248
16.8699
20.0163
21.2747
21.6871
21.7435
21.5541
20.9335
19.3293
15.8518
10.4875
5.94105
5.2251
6.72553
9.71489
15.0024
23.6143
29.9544
23.2836
14.8125
9.64092
6.70907
5.23362
5.95049
10.5131
16.6454
22.8989
28.3296
32.1945
34.1426
34.019
31.6213
26.6923
19.4092
11.6346
6.33245
5.44968
6.74804
9.41897
14.0881
21.4642
27.247
22.2907
14.723
9.79442
6.89267
5.25327
5.42471
8.47535
11.9841
16.0302
19.2507
21.3554
22.8126
24.1565
25.8189
28.126
30.6016
29.8686
23.6891
16.0462
16.3201
24.7879
33.6017
39.1005
39.7919
38.3255
36.6603
35.0854
33.2871
30.7273
26.8345
21.4018
15.0713
9.27126
5.55137
5.33955
7.07929
9.87297
13.4339
16.061
15.216
11.9561
8.82147
6.64456
5.51003
6.46745
11.9643
20.0184
27.2551
31.9019
34.2465
34.8513
33.9343
31.2775
26.4133
19.2743
11.5743
6.28774
5.38638
6.58793
8.95374
12.718
17.7446
20.7328
17.6452
12.6488
8.92601
6.58422
5.39277
6.29126
11.545
19.5427
28.5941
37.3799
44.6135
48.3977
46.9954