/*--------------------------------*- C++ -*----------------------------------*\
  =========                 |
  \\      /  F ield         | OpenFOAM: The Open Source CFD Toolbox
   \\    /   O peration     | Website:  https://openfoam.org
    \\  /    A nd           | Version:  7
     \\/     M anipulation  |
\*---------------------------------------------------------------------------*/
FoamFile
{
    version     2.0;
    format      ascii;
    class       surfaceScalarField;
    location    "1000";
    object      phi;
}
// * * * * * * * * * * * * * * * * * * * * * * * * * * * * * * * * * * * * * //

dimensions      [0 3 -1 0 0 0 0];

internalField   nonuniform List<scalar> 
136311
(
-1.65805e-14
-1.45553e-14
6.76918e-11
-3.51168e-14
-3.29306e-14
1.38079e-10
-5.15785e-14
-5.32755e-14
1.90424e-10
-6.44904e-14
-7.85619e-14
2.39045e-10
-7.72207e-14
-9.78125e-14
2.83339e-10
-8.97793e-14
-1.13015e-13
3.18384e-10
-1.01085e-13
-1.26408e-13
3.4413e-10
-1.10039e-13
-1.39068e-13
3.62633e-10
-1.1593e-13
-1.51144e-13
3.75964e-10
-1.1841e-13
-1.62276e-13
3.85672e-10
-1.17569e-13
-1.7189e-13
3.92816e-10
-1.13798e-13
-1.79434e-13
3.98108e-10
-1.07811e-13
-1.84564e-13
4.02032e-10
-1.00419e-13
-1.87323e-13
4.04928e-10
-9.2433e-14
-1.88206e-13
4.07045e-10
-8.44491e-14
-1.88057e-13
4.08569e-10
-7.67848e-14
-1.87912e-13
4.09649e-10
-6.95555e-14
-1.8858e-13
4.10398e-10
-6.28369e-14
-1.90539e-13
4.10908e-10
-5.66708e-14
-1.94081e-13
4.11251e-10
-5.10781e-14
-1.99344e-13
4.11479e-10
-4.60415e-14
-2.06345e-13
4.11631e-10
-4.15155e-14
-2.14966e-13
4.11733e-10
-3.7444e-14
-2.24917e-13
4.11802e-10
-3.37855e-14
-2.35752e-13
4.11849e-10
-3.05016e-14
-2.46907e-13
4.11882e-10
-2.73842e-14
-2.57999e-13
4.11905e-10
-2.44081e-14
-2.68099e-13
4.11922e-10
-2.1661e-14
-2.76369e-13
4.11933e-10
-1.91748e-14
-2.82264e-13
4.1194e-10
-1.68461e-14
-2.85533e-13
4.11943e-10
-1.44514e-14
-2.86079e-13
4.11942e-10
-1.17844e-14
-2.8384e-13
4.11938e-10
-8.78262e-15
-2.78786e-13
4.11931e-10
-5.58207e-15
-2.71036e-13
4.11921e-10
-2.43365e-15
-2.61032e-13
4.11908e-10
4.71694e-16
-2.49597e-13
4.11892e-10
3.18624e-15
-2.37847e-13
4.11873e-10
5.74331e-15
-2.26503e-13
4.1185e-10
8.12056e-15
-2.16205e-13
4.11821e-10
1.03489e-14
-2.07633e-13
4.11785e-10
1.24674e-14
-2.0128e-13
4.11741e-10
1.44998e-14
-1.97471e-13
4.11683e-10
1.64585e-14
-1.96406e-13
4.11608e-10
1.83669e-14
-1.982e-13
4.11509e-10
2.03271e-14
-2.02892e-13
4.11378e-10
2.25475e-14
-2.10385e-13
4.11205e-10
2.53235e-14
-2.20279e-13
4.10985e-10
2.88533e-14
-2.31673e-13
4.10715e-10
3.2986e-14
-2.43058e-13
4.10401e-10
3.72071e-14
-2.52827e-13
4.10051e-10
4.08123e-14
-2.59667e-13
4.09683e-10
4.31761e-14
-2.62907e-13
4.09317e-10
4.39522e-14
-2.62523e-13
4.08971e-10
4.31433e-14
-2.58953e-13
4.0866e-10
4.10232e-14
-2.52897e-13
4.08396e-10
3.81548e-14
-2.45207e-13
4.08181e-10
3.53359e-14
-2.36771e-13
4.08017e-10
3.37695e-14
-2.28446e-13
4.07901e-10
3.40367e-14
-2.19684e-13
4.07825e-10
3.58731e-14
-2.09524e-13
4.07781e-10
3.84574e-14
-1.97665e-13
4.0776e-10
4.09827e-14
-1.84648e-13
4.07753e-10
4.32026e-14
-1.72001e-13
4.07748e-10
4.53092e-14
-1.60834e-13
4.07733e-10
4.75045e-14
-1.51641e-13
4.07695e-10
5.00298e-14
-1.44612e-13
4.07617e-10
5.30202e-14
-1.39697e-13
4.07479e-10
5.65739e-14
-1.3676e-13
4.0725e-10
6.07366e-14
-1.35603e-13
4.06886e-10
6.55001e-14
-1.35927e-13
4.06323e-10
7.07675e-14
-1.37304e-13
4.05472e-10
7.64078e-14
-1.39293e-13
4.04216e-10
8.2119e-14
-1.41169e-13
4.02403e-10
8.73272e-14
-1.4205e-13
3.99833e-10
9.13209e-14
-1.41232e-13
3.96244e-10
9.33496e-14
-1.38267e-13
3.9128e-10
9.28155e-14
-1.33109e-13
3.84443e-10
8.94263e-14
-1.26036e-13
3.75009e-10
8.32592e-14
-1.17477e-13
3.61913e-10
7.48309e-14
-1.07784e-13
3.43606e-10
6.50041e-14
-9.69245e-14
3.18018e-10
5.47173e-14
-8.41113e-14
2.83102e-10
4.39855e-14
-6.7564e-14
2.3891e-10
3.00081e-14
-4.57651e-14
1.9036e-10
1.41723e-14
-2.82797e-14
1.38054e-10
-1.24879e-14
6.7687e-11
-4.17794e-14
-2.61797e-14
1.35111e-10
-9.07244e-14
-6.08066e-14
2.82118e-10
-1.45391e-13
-1.07803e-13
4.18785e-10
-2.03752e-13
-1.82396e-13
6.11505e-10
-2.66729e-13
-2.38555e-13
8.02652e-10
-3.27668e-13
-2.85104e-13
9.582e-10
-3.81659e-13
-3.28193e-13
1.07694e-09
-4.25145e-13
-3.70375e-13
1.16607e-09
-4.55898e-13
-4.11598e-13
1.23295e-09
-4.72815e-13
-4.50324e-13
1.28336e-09
-4.76042e-13
-4.84365e-13
1.32147e-09
-4.66757e-13
-5.11587e-13
1.35027e-09
-4.47203e-13
-5.30522e-13
1.37193e-09
-4.20184e-13
-5.4102e-13
1.38803e-09
-3.88643e-13
-5.4457e-13
1.39984e-09
-3.55023e-13
-5.43997e-13
1.40832e-09
-3.20833e-13
-5.42992e-13
1.4143e-09
-2.86916e-13
-5.44367e-13
1.41842e-09
-2.53986e-13
-5.49608e-13
1.42121e-09
-2.22646e-13
-5.59593e-13
1.42308e-09
-1.93408e-13
-5.74732e-13
1.42434e-09
-1.66656e-13
-5.95071e-13
1.42519e-09
-1.42703e-13
-6.20222e-13
1.42578e-09
-1.21881e-13
-6.49216e-13
1.4262e-09
-1.04612e-13
-6.80568e-13
1.4265e-09
-9.12613e-14
-7.12526e-13
1.42674e-09
-8.12943e-14
-7.44484e-13
1.42692e-09
-7.4556e-14
-7.73463e-13
1.42706e-09
-7.10102e-14
-7.9689e-13
1.42716e-09
-7.01819e-14
-8.13346e-13
1.42724e-09
-7.09281e-14
-8.22427e-13
1.42728e-09
-7.15997e-14
-8.24096e-13
1.42728e-09
-7.05753e-14
-8.18166e-13
1.42726e-09
-6.67849e-14
-8.04275e-13
1.4272e-09
-5.9991e-14
-7.82368e-13
1.42712e-09
-5.05948e-14
-7.53451e-13
1.42701e-09
-3.9071e-14
-7.19953e-13
1.42688e-09
-2.53199e-14
-6.85523e-13
1.42673e-09
-9.63559e-15
-6.52036e-13
1.42655e-09
7.33186e-15
-6.21255e-13
1.42635e-09
2.51512e-14
-5.95446e-13
1.42612e-09
4.34882e-14
-5.76223e-13
1.42585e-09
6.20016e-14
-5.6461e-13
1.42551e-09
8.03019e-14
-5.61209e-13
1.42509e-09
9.79998e-14
-5.66376e-13
1.42453e-09
1.14882e-13
-5.80303e-13
1.42379e-09
1.31035e-13
-6.02838e-13
1.42281e-09
1.46781e-13
-6.32841e-13
1.42153e-09
1.6214e-13
-6.67376e-13
1.41992e-09
1.76074e-13
-7.01285e-13
1.418e-09
1.86704e-13
-7.29326e-13
1.41582e-09
1.92013e-13
-7.47523e-13
1.41349e-09
1.90727e-13
-7.54331e-13
1.41114e-09
1.82833e-13
-7.50357e-13
1.40892e-09
1.69528e-13
-7.37529e-13
1.40694e-09
1.52749e-13
-7.1828e-13
1.40527e-09
1.34926e-13
-6.95235e-13
1.40394e-09
1.18949e-13
-6.71167e-13
1.40294e-09
1.08879e-13
-6.49142e-13
1.40224e-09
1.06865e-13
-6.26749e-13
1.40179e-09
1.12226e-13
-5.99783e-13
1.40154e-09
1.22392e-13
-5.66505e-13
1.40142e-09
1.34502e-13
-5.28288e-13
1.40138e-09
1.47499e-13
-4.90711e-13
1.40135e-09
1.61561e-13
-4.5761e-13
1.40126e-09
1.76856e-13
-4.30474e-13
1.40104e-09
1.93677e-13
-4.09889e-13
1.40061e-09
2.12106e-13
-3.95719e-13
1.39986e-09
2.32169e-13
-3.87569e-13
1.39865e-09
2.5378e-13
-3.84898e-13
1.39672e-09
2.76643e-13
-3.86746e-13
1.39372e-09
3.00119e-13
-3.91698e-13
1.38915e-09
3.23485e-13
-3.98455e-13
1.38236e-09
3.45353e-13
-4.04424e-13
1.37249e-09
3.63427e-13
-4.06455e-13
1.35848e-09
3.75044e-13
-4.0217e-13
1.33899e-09
3.77582e-13
-3.90213e-13
1.31229e-09
3.69073e-13
-3.70713e-13
1.27613e-09
3.486e-13
-3.44949e-13
1.22745e-09
3.16455e-13
-3.14713e-13
1.16201e-09
2.74273e-13
-2.81586e-13
1.07406e-09
2.24975e-13
-2.46028e-13
9.56258e-10
1.72904e-13
-2.06317e-13
8.01444e-10
1.2392e-13
-1.57644e-13
6.10868e-10
7.74625e-14
-9.29935e-14
4.1853e-10
3.56738e-14
-5.24573e-14
2.82022e-10
-2.25667e-14
1.35091e-10
-6.65069e-14
-3.132e-14
1.77546e-10
-1.57447e-13
-7.47095e-14
3.9074e-10
-2.96412e-13
-1.4038e-13
6.5744e-10
-4.93024e-13
-2.71659e-13
1.27756e-09
-7.04501e-13
-3.70658e-13
1.86214e-09
-9.10289e-13
-4.53256e-13
2.35501e-09
-1.09655e-12
-5.33565e-13
2.75654e-09
-1.25253e-12
-6.16342e-13
3.07787e-09
-1.37075e-12
-7.00568e-13
3.33248e-09
-1.44675e-12
-7.82171e-13
3.53288e-09
-1.47931e-12
-8.55668e-13
3.68954e-09
-1.47035e-12
-9.15576e-13
3.81085e-09
-1.425e-12
-9.57747e-13
3.90353e-09
-1.35074e-12
-9.80983e-13
3.97306e-09
-1.25616e-12
-9.87969e-13
4.02409e-09
-1.14928e-12
-9.84794e-13
4.0606e-09
-1.03567e-12
-9.80298e-13
4.08606e-09
-9.19085e-13
-9.81017e-13
4.1034e-09
-8.02842e-13
-9.89778e-13
4.11503e-09
-6.89893e-13
-1.00814e-12
4.12277e-09
-5.82815e-13
-1.03675e-12
4.12797e-09
-4.83826e-13
-1.0756e-12
4.13152e-09
-3.95012e-13
-1.12376e-12
4.13404e-09
-3.18718e-13
-1.17888e-12
4.13589e-09
-2.57761e-13
-1.23745e-12
4.1373e-09
-2.14705e-13
-1.29557e-12
4.13843e-09
-1.88769e-13
-1.35409e-12
4.13932e-09
-1.79366e-13
-1.40665e-12
4.14004e-09
-1.85422e-13
-1.44813e-12
4.14058e-09
-2.03953e-13
-1.47648e-12
4.14097e-09
-2.29631e-13
-1.49198e-12
4.14119e-09
-2.55529e-13
-1.4953e-12
4.14124e-09
-2.74715e-13
-1.4861e-12
4.14111e-09
-2.81893e-13
-1.4629e-12
4.14082e-09
-2.74406e-13
-1.42441e-12
4.14039e-09
-2.5203e-13
-1.37157e-12
4.13983e-09
-2.15561e-13
-1.3089e-12
4.13916e-09
-1.65087e-13
-1.24444e-12
4.13838e-09
-1.0278e-13
-1.1806e-12
4.1375e-09
-3.21642e-14
-1.12038e-12
4.13652e-09
4.4086e-14
-1.06919e-12
4.13542e-09
1.23865e-13
-1.03074e-12
4.13416e-09
2.05207e-13
-1.00725e-12
4.13266e-09
2.86015e-13
-9.99916e-13
4.13079e-09
3.64077e-13
-1.00946e-12
4.12837e-09
4.37398e-13
-1.03648e-12
4.12514e-09
5.04546e-13
-1.08105e-12
4.12077e-09
5.6445e-13
-1.14112e-12
4.11493e-09
6.1515e-13
-1.21015e-12
4.10735e-09
6.52163e-13
-1.27608e-12
4.09799e-09
6.69995e-13
-1.32763e-12
4.08712e-09
6.64401e-13
-1.35717e-12
4.07527e-09
6.3455e-13
-1.36315e-12
4.06322e-09
5.83849e-13
-1.3487e-12
4.05181e-09
5.19022e-13
-1.31924e-12
4.04176e-09
4.48203e-13
-1.28022e-12
4.03353e-09
3.79303e-13
-1.23647e-12
4.0272e-09
3.20146e-13
-1.19312e-12
4.02261e-09
2.81146e-13
-1.15791e-12
4.0195e-09
2.68231e-13
-1.12408e-12
4.01759e-09
2.8048e-13
-1.08017e-12
4.01662e-09
3.11896e-13
-1.02057e-12
4.01635e-09
3.5459e-13
-9.46967e-13
4.01642e-09
4.04968e-13
-8.73234e-13
4.01647e-09
4.61925e-13
-8.08293e-13
4.01618e-09
5.24381e-13
-7.55007e-13
4.01532e-09
5.91687e-13
-7.14768e-13
4.0136e-09
6.63143e-13
-6.87433e-13
4.01063e-09
7.38059e-13
-6.72411e-13
4.00579e-09
8.1559e-13
-6.68883e-13
3.99808e-09
8.94174e-13
-6.74905e-13
3.98599e-09
9.71148e-13
-6.87448e-13
3.96736e-09
1.04358e-12
-7.04297e-13
3.93926e-09
1.10653e-12
-7.19235e-13
3.89802e-09
1.15258e-12
-7.24599e-13
3.8392e-09
1.17383e-12
-7.15203e-13
3.75756e-09
1.1633e-12
-6.88523e-13
3.64694e-09
1.11645e-12
-6.45694e-13
3.50006e-09
1.03208e-12
-5.90508e-13
3.30812e-09
9.12487e-13
-5.27811e-13
3.06047e-09
7.63571e-13
-4.61955e-13
2.74463e-09
5.94615e-13
-3.94893e-13
2.3473e-09
4.18114e-13
-3.23614e-13
1.85758e-09
2.5235e-13
-2.36909e-13
1.27535e-09
1.34328e-13
-1.22125e-13
6.56837e-10
5.67566e-14
-6.49673e-14
3.90557e-10
-2.72093e-14
1.77512e-10
-8.90097e-14
-3.00346e-14
2.0495e-10
-2.22422e-13
-7.4229e-14
4.75896e-10
-4.46193e-13
-1.47145e-13
8.69e-10
-7.81109e-13
-3.05018e-13
1.86291e-09
-1.1297e-12
-4.22188e-13
2.75726e-09
-1.45886e-12
-5.19143e-13
3.48738e-09
-1.75286e-12
-6.16703e-13
4.07871e-09
-1.9996e-12
-7.21923e-13
4.55604e-09
-2.18974e-12
-8.33076e-13
4.93983e-09
-2.31663e-12
-9.43731e-13
5.24671e-09
-2.37708e-12
-1.04508e-12
5.49e-09
-2.37187e-12
-1.12786e-12
5.68027e-09
-2.30672e-12
-1.18447e-12
5.82621e-09
-2.19168e-12
-1.21178e-12
5.93534e-09
-2.03987e-12
-1.21306e-12
6.01449e-09
-1.86473e-12
-1.19765e-12
6.07001e-09
-1.6756e-12
-1.18176e-12
6.10773e-09
-1.47843e-12
-1.17682e-12
6.13274e-09
-1.27903e-12
-1.18559e-12
6.14913e-09
-1.08276e-12
-1.20927e-12
6.15992e-09
-8.94446e-13
-1.2482e-12
6.16717e-09
-7.18387e-13
-1.30206e-12
6.1722e-09
-5.58872e-13
-1.36919e-12
6.17585e-09
-4.2122e-13
-1.44521e-12
6.17864e-09
-3.12616e-13
-1.52323e-12
6.18088e-09
-2.40707e-13
-1.59571e-12
6.18272e-09
-2.04904e-13
-1.67008e-12
6.18424e-09
-2.04476e-13
-1.73556e-12
6.18548e-09
-2.36857e-13
-1.78477e-12
6.18646e-09
-2.9535e-13
-1.81648e-12
6.18717e-09
-3.68799e-13
-1.83335e-12
6.18757e-09
-4.43196e-13
-1.83776e-12
6.18766e-09
-5.04411e-13
-1.82928e-12
6.18743e-09
-5.40975e-13
-1.80454e-12
6.1869e-09
-5.46087e-13
-1.75933e-12
6.18611e-09
-5.17857e-13
-1.69281e-12
6.18511e-09
-4.57214e-13
-1.61067e-12
6.1839e-09
-3.64396e-13
-1.52677e-12
6.18252e-09
-2.45564e-13
-1.44041e-12
6.18099e-09
-1.09637e-13
-1.35473e-12
6.17932e-09
3.73504e-14
-1.28043e-12
6.17749e-09
1.9114e-13
-1.22414e-12
6.17545e-09
3.47948e-13
-1.18936e-12
6.17308e-09
5.03701e-13
-1.17766e-12
6.1702e-09
6.53861e-13
-1.18992e-12
6.16653e-09
7.93957e-13
-1.2274e-12
6.16159e-09
9.2014e-13
-1.29132e-12
6.15476e-09
1.02874e-12
-1.37955e-12
6.1452e-09
1.11415e-12
-1.48138e-12
6.13214e-09
1.16633e-12
-1.57498e-12
6.11517e-09
1.17572e-12
-1.64278e-12
6.09455e-09
1.13748e-12
-1.67472e-12
6.07135e-09
1.05447e-12
-1.67173e-12
6.0473e-09
9.37273e-13
-1.64176e-12
6.02445e-09
8.01655e-13
-1.59533e-12
6.00464e-09
6.64371e-13
-1.54094e-12
5.9891e-09
5.38427e-13
-1.48386e-12
5.978e-09
4.32622e-13
-1.42922e-12
5.97056e-09
3.61942e-13
-1.39507e-12
5.96573e-09
3.34945e-13
-1.36572e-12
5.96308e-09
3.52025e-13
-1.31983e-12
5.96231e-09
4.05738e-13
-1.24596e-12
5.96282e-09
4.82917e-13
-1.14346e-12
5.96376e-09
5.77264e-13
-1.03923e-12
5.96439e-09
6.8488e-13
-9.47667e-13
5.96428e-09
8.01824e-13
-8.72166e-13
5.96322e-09
9.25542e-13
-8.15301e-13
5.96095e-09
1.05408e-12
-7.77136e-13
5.95702e-09
1.1859e-12
-7.57272e-13
5.95059e-09
1.31957e-12
-7.55296e-13
5.94028e-09
1.45246e-12
-7.68542e-13
5.92387e-09
1.57999e-12
-7.9255e-13
5.89794e-09
1.69799e-12
-8.26471e-13
5.85767e-09
1.79856e-12
-8.59396e-13
5.79682e-09
1.86927e-12
-8.76865e-13
5.70806e-09
1.89789e-12
-8.70798e-13
5.5832e-09
1.87471e-12
-8.37824e-13
5.41325e-09
1.79441e-12
-7.80903e-13
5.18829e-09
1.65662e-12
-7.07065e-13
4.89697e-09
1.46526e-12
-6.24601e-13
4.52576e-09
1.22808e-12
-5.40685e-13
4.05815e-09
9.55945e-13
-4.5862e-13
3.47413e-09
6.63537e-13
-3.73916e-13
2.74943e-09
3.80256e-13
-2.6978e-13
1.85912e-09
1.8993e-13
-1.29765e-13
8.6806e-10
7.60196e-14
-6.5398e-14
4.75642e-10
-2.64255e-14
2.04907e-10
-1.0744e-13
-2.33479e-14
2.22312e-10
-2.78053e-13
-5.97677e-14
5.35187e-10
-5.78865e-13
-1.24071e-13
1.02423e-09
-1.03739e-12
-2.70687e-13
2.31183e-09
-1.4983e-12
-3.81003e-13
3.42101e-09
-1.91659e-12
-4.7361e-13
4.28349e-09
-2.27991e-12
-5.69768e-13
4.96124e-09
-2.58072e-12
-6.76861e-13
5.50135e-09
-2.81235e-12
-7.92747e-13
5.93494e-09
-2.96857e-12
-9.09784e-13
6.28316e-09
-3.04482e-12
-1.01709e-12
6.56071e-09
-3.03973e-12
-1.10243e-12
6.77821e-09
-2.95751e-12
-1.15506e-12
6.94403e-09
-2.8086e-12
-1.16931e-12
7.06581e-09
-2.60981e-12
-1.14828e-12
7.15128e-09
-2.38076e-12
-1.1036e-12
7.20843e-09
-2.13349e-12
-1.0643e-12
7.24507e-09
-1.87367e-12
-1.04905e-12
7.26808e-09
-1.60818e-12
-1.05533e-12
7.28266e-09
-1.34406e-12
-1.08171e-12
7.29217e-09
-1.08764e-12
-1.12762e-12
7.29867e-09
-8.44567e-13
-1.19248e-12
7.30337e-09
-6.2056e-13
-1.27403e-12
7.30698e-09
-4.23822e-13
-1.36509e-12
7.3099e-09
-2.67828e-13
-1.45299e-12
7.3124e-09
-1.70019e-13
-1.52256e-12
7.3146e-09
-1.29147e-13
-1.60022e-12
7.31652e-09
-1.45521e-13
-1.66524e-12
7.31815e-09
-2.14946e-13
-1.70891e-12
7.31945e-09
-3.26104e-13
-1.7332e-12
7.32038e-09
-4.61024e-13
-1.74502e-12
7.3209e-09
-5.97928e-13
-1.74943e-12
7.32102e-09
-7.14774e-13
-1.74611e-12
7.32073e-09
-7.92764e-13
-1.72909e-12
7.32004e-09
-8.19591e-13
-1.68967e-12
7.31898e-09
-7.90778e-13
-1.62281e-12
7.31761e-09
-7.08061e-13
-1.53312e-12
7.31599e-09
-5.71084e-13
-1.44563e-12
7.31416e-09
-3.92981e-13
-1.34857e-12
7.31221e-09
-1.91509e-13
-1.24254e-12
7.31015e-09
2.36372e-14
-1.1483e-12
7.30796e-09
2.47003e-13
-1.07659e-12
7.30557e-09
4.73962e-13
-1.03188e-12
7.30291e-09
6.99132e-13
-1.0154e-12
7.29981e-09
9.15959e-13
-1.02755e-12
7.29599e-09
1.11778e-12
-1.07037e-12
7.29097e-09
1.29865e-12
-1.14766e-12
7.28389e-09
1.45237e-12
-1.25993e-12
7.27337e-09
1.56831e-12
-1.39314e-12
7.25763e-09
1.62742e-12
-1.51018e-12
7.23515e-09
1.61487e-12
-1.58686e-12
7.20558e-09
1.52692e-12
-1.61323e-12
7.1703e-09
1.37377e-12
-1.59568e-12
7.13233e-09
1.17657e-12
-1.549e-12
7.09564e-09
9.63066e-13
-1.48948e-12
7.06409e-09
7.60787e-13
-1.42813e-12
7.04051e-09
5.87351e-13
-1.36744e-12
7.02574e-09
4.4461e-13
-1.30887e-12
7.01785e-09
3.47564e-13
-1.29356e-12
7.01279e-09
3.0657e-13
-1.28622e-12
7.01119e-09
3.26242e-13
-1.25452e-12
7.0128e-09
4.02131e-13
-1.18135e-12
7.01588e-09
5.14276e-13
-1.05743e-12
7.01864e-09
6.53413e-13
-9.33291e-13
7.02013e-09
8.10903e-13
-8.25322e-13
7.02035e-09
9.78431e-13
-7.34449e-13
7.01948e-09
1.15159e-12
-6.65569e-13
7.01752e-09
1.32774e-12
-6.19374e-13
7.01422e-09
1.50507e-12
-5.95982e-13
7.00894e-09
1.68251e-12
-5.96447e-13
7.00052e-09
1.85703e-12
-6.17629e-13
6.98689e-09
2.02232e-12
-6.52929e-13
6.96452e-09
2.17638e-12
-7.11262e-13
6.92767e-09
2.31006e-12
-7.76291e-13
6.86816e-09
2.40461e-12
-8.19816e-13
6.77627e-09
2.44389e-12
-8.31626e-13
6.6418e-09
2.417e-12
-8.07838e-13
6.4544e-09
2.31913e-12
-7.53617e-13
6.20358e-09
2.1509e-12
-6.78887e-13
5.87757e-09
1.91625e-12
-5.94501e-13
5.46147e-09
1.62117e-12
-5.0946e-13
4.93458e-09
1.27313e-12
-4.28028e-13
4.26653e-09
8.84324e-13
-3.45722e-13
3.41109e-09
4.9473e-13
-2.45315e-13
2.30709e-09
2.38018e-13
-1.12037e-13
1.02314e-09
9.19534e-14
-5.38854e-14
5.34912e-10
-2.10113e-14
2.22269e-10
-1.20591e-13
-1.25926e-14
2.32457e-10
-3.19015e-13
-3.39157e-14
5.71409e-10
-6.79548e-13
-7.51229e-14
1.12302e-09
-1.23587e-12
-1.74964e-13
2.61377e-09
-1.78263e-12
-2.58041e-13
3.86163e-09
-2.26334e-12
-3.34683e-13
4.79174e-09
-2.67015e-12
-4.18569e-13
5.49809e-09
-3.00196e-12
-5.14042e-13
6.04958e-09
-3.25627e-12
-6.18103e-13
6.48776e-09
-3.42831e-12
-7.22731e-13
6.83781e-09
-3.51244e-12
-8.16171e-13
7.11527e-09
-3.50456e-12
-8.84644e-13
7.33004e-09
-3.40565e-12
-9.15293e-13
7.48944e-09
-3.22506e-12
-9.00459e-13
7.60073e-09
-2.98426e-12
-8.41928e-13
7.67269e-09
-2.71384e-12
-7.49832e-13
7.71552e-09
-2.42753e-12
-6.79256e-13
7.73953e-09
-2.12513e-12
-6.58853e-13
7.75319e-09
-1.81263e-12
-6.67058e-13
7.76164e-09
-1.49892e-12
-6.96952e-13
7.76738e-09
-1.19124e-12
-7.48417e-13
7.77164e-09
-8.95327e-13
-8.21563e-13
7.77506e-09
-6.17139e-13
-9.14091e-13
7.77796e-09
-3.6708e-13
-1.01575e-12
7.78053e-09
-1.66184e-13
-1.10645e-12
7.78286e-09
-4.66998e-14
-1.15493e-12
7.78511e-09
-2.18779e-15
-1.23092e-12
7.78734e-09
-3.6607e-14
-1.28732e-12
7.78936e-09
-1.45393e-13
-1.31535e-12
7.7909e-09
-3.11264e-13
-1.32437e-12
7.79185e-09
-5.08959e-13
-1.3268e-12
7.79232e-09
-7.09851e-13
-1.33025e-12
7.79243e-09
-8.85007e-13
-1.33448e-12
7.79221e-09
-1.00808e-12
-1.33123e-12
7.79156e-09
-1.05953e-12
-1.30678e-12
7.79036e-09
-1.03155e-12
-1.24887e-12
7.78863e-09
-9.29641e-13
-1.15653e-12
7.78658e-09
-7.50252e-13
-1.08099e-12
7.7845e-09
-5.14977e-13
-9.85397e-13
7.78245e-09
-2.54012e-13
-8.62747e-13
7.78033e-09
1.95565e-14
-7.51695e-13
7.77807e-09
3.00558e-13
-6.67294e-13
7.77568e-09
5.84908e-13
-6.14279e-13
7.77312e-09
8.67107e-13
-5.92668e-13
7.77033e-09
1.1393e-12
-6.01451e-13
7.76717e-09
1.39241e-12
-6.42132e-13
7.76335e-09
1.61868e-12
-7.21105e-13
7.75824e-09
1.81232e-12
-8.48673e-13
7.75035e-09
1.95716e-12
-1.01377e-12
7.73668e-09
2.01903e-12
-1.15231e-12
7.71337e-09
1.97445e-12
-1.23277e-12
7.67811e-09
1.8227e-12
-1.24945e-12
7.63181e-09
1.5853e-12
-1.21763e-12
7.57882e-09
1.2966e-12
-1.15941e-12
7.52564e-09
9.97746e-13
-1.09715e-12
7.47899e-09
7.3169e-13
-1.04597e-12
7.44429e-09
5.34852e-13
-1.00889e-12
7.42462e-09
4.06552e-13
-9.77904e-13
7.41804e-09
3.02973e-13
-9.7539e-13
7.41479e-09
2.4215e-13
-9.78333e-13
7.41803e-09
2.537e-13
-9.63265e-13
7.42591e-09
3.4784e-13
-9.02635e-13
7.43358e-09
4.92678e-13
-7.60858e-13
7.43805e-09
6.70585e-13
-6.33214e-13
7.43957e-09
8.7178e-13
-5.26433e-13
7.43959e-09
1.0812e-12
-4.29425e-13
7.43878e-09
1.29293e-12
-3.52892e-13
7.43738e-09
1.50428e-12
-2.99838e-13
7.43535e-09
1.71351e-12
-2.71144e-13
7.43244e-09
1.92172e-12
-2.70991e-13
7.42811e-09
2.12459e-12
-2.93712e-13
7.42122e-09
2.31057e-12
-3.25755e-13
7.40957e-09
2.49125e-12
-4.06062e-13
7.38839e-09
2.65784e-12
-5.15308e-13
7.34806e-09
2.77931e-12
-5.94816e-13
7.2759e-09
2.83361e-12
-6.35717e-13
7.15881e-09
2.80965e-12
-6.34466e-13
6.98465e-09
2.70439e-12
-5.97647e-13
6.74259e-09
2.51983e-12
-5.36708e-13
6.42113e-09
2.2595e-12
-4.63725e-13
6.00473e-09
1.92652e-12
-3.88624e-13
5.46908e-09
1.5234e-12
-3.16854e-13
4.77389e-09
1.05887e-12
-2.4675e-13
3.85154e-09
5.83304e-13
-1.67564e-13
2.60911e-09
2.74118e-13
-7.17352e-14
1.12201e-09
1.03546e-13
-3.2385e-14
5.71176e-10
-1.20142e-14
2.32426e-10
-1.27589e-13
6.42339e-16
2.37238e-10
-3.41446e-13
-9.64039e-16
5.88752e-10
-7.3616e-13
-9.72121e-15
1.17149e-09
-1.35041e-12
-3.88496e-14
2.76774e-09
-1.94939e-12
-8.0833e-14
4.08609e-09
-2.46898e-12
-1.34292e-13
5.04591e-09
-2.90446e-12
-1.99598e-13
5.75962e-09
-3.25931e-12
-2.7537e-13
6.30955e-09
-3.53368e-12
-3.57294e-13
6.74342e-09
-3.72282e-12
-4.37367e-13
7.08813e-09
-3.81885e-12
-5.0364e-13
7.35854e-09
-3.81406e-12
-5.41775e-13
7.56273e-09
-3.70548e-12
-5.38723e-13
7.70629e-09
-3.50123e-12
-4.89843e-13
7.79631e-09
-3.22577e-12
-4.02923e-13
7.84421e-09
-2.91951e-12
-2.84471e-13
7.86512e-09
-2.60021e-12
-2.09129e-13
7.87328e-09
-2.26555e-12
-1.98768e-13
7.87749e-09
-1.92153e-12
-2.1159e-13
7.88073e-09
-1.57592e-12
-2.46261e-13
7.88355e-09
-1.23544e-12
-3.02828e-13
7.88613e-09
-9.05332e-13
-3.81065e-13
7.88858e-09
-5.91499e-13
-4.79722e-13
7.89092e-09
-3.01636e-13
-5.9068e-13
7.89312e-09
-5.1335e-14
-6.94513e-13
7.89513e-09
1.15041e-13
-7.14723e-13
7.89709e-09
1.66577e-13
-7.33896e-13
7.89985e-09
1.08016e-13
-7.40778e-13
7.90255e-09
-4.53347e-14
-7.30548e-13
7.90423e-09
-2.65694e-13
-7.13582e-13
7.90489e-09
-5.21472e-13
-7.02394e-13
7.90503e-09
-7.81483e-13
-7.03705e-13
7.90508e-09
-1.01459e-12
-7.16901e-13
7.90512e-09
-1.18896e-12
-7.34152e-13
7.90484e-09
-1.2748e-12
-7.41515e-13
7.90371e-09
-1.25271e-12
-7.25455e-13
7.90147e-09
-1.11473e-12
-6.8549e-13
7.89871e-09
-8.77508e-13
-6.57876e-13
7.89657e-09
-5.91838e-13
-5.5565e-13
7.8948e-09
-2.88372e-13
-4.11265e-13
7.89282e-09
2.62559e-14
-2.88696e-13
7.89064e-09
3.48241e-13
-1.96702e-13
7.88834e-09
6.73795e-13
-1.3814e-13
7.88597e-09
9.97932e-13
-1.11257e-13
7.88353e-09
1.31211e-12
-1.13514e-13
7.88099e-09
1.60621e-12
-1.48393e-13
7.8783e-09
1.87736e-12
-2.24287e-13
7.87554e-09
2.12452e-12
-3.48095e-13
7.87222e-09
2.31054e-12
-5.09458e-13
7.86521e-09
2.37637e-12
-6.28746e-13
7.84765e-09
2.29509e-12
-6.89952e-13
7.81333e-09
2.0763e-12
-6.90068e-13
7.76112e-09
1.75696e-12
-6.47625e-13
7.69643e-09
1.38598e-12
-5.87247e-13
7.62864e-09
1.01595e-12
-5.35626e-13
7.56711e-09
6.98381e-13
-5.1057e-13
7.51874e-09
4.73977e-13
-5.1325e-13
7.48765e-09
3.45525e-13
-5.23962e-13
7.47478e-09
2.26791e-13
-5.09447e-13
7.4791e-09
1.31729e-13
-5.0909e-13
7.4941e-09
1.16801e-13
-5.16174e-13
7.51173e-09
2.16652e-13
-5.0187e-13
7.52372e-09
4.17423e-13
-4.24322e-13
7.52738e-09
6.51431e-13
-3.57514e-13
7.52737e-09
8.91633e-13
-2.57686e-13
7.52664e-09
1.13035e-12
-1.55915e-13
7.52563e-09
1.36796e-12
-7.15e-14
7.52448e-09
1.60259e-12
-9.89513e-15
7.52322e-09
1.83291e-12
2.70672e-14
7.52183e-09
2.06165e-12
3.72803e-14
7.52027e-09
2.28376e-12
2.15141e-14
7.51825e-09
2.49305e-12
-7.4795e-15
7.51552e-09
2.70226e-12
-6.32211e-14
7.51101e-09
2.89392e-12
-1.75207e-13
7.49596e-09
3.03517e-12
-2.71028e-13
7.4536e-09
3.09954e-12
-3.40364e-13
7.3644e-09
3.07477e-12
-3.68556e-13
7.2123e-09
2.95995e-12
-3.58191e-13
6.98598e-09
2.75957e-12
-3.20049e-13
6.67537e-09
2.47826e-12
-2.66384e-13
6.26616e-09
2.1179e-12
-2.07548e-13
5.7332e-09
1.67774e-12
-1.50509e-13
5.03071e-09
1.16435e-12
-9.87561e-14
4.0781e-09
6.35362e-13
-5.31369e-14
2.76434e-09
2.94794e-13
-1.63849e-14
1.17083e-09
1.1001e-13
-4.35319e-15
5.88621e-10
-7.20873e-16
2.37229e-10
-1.27867e-13
1.45588e-14
2.37679e-10
-3.42872e-13
3.37599e-14
5.89866e-10
-7.40644e-13
5.93549e-14
1.17371e-09
-1.3619e-12
1.06154e-13
2.77428e-09
-1.97141e-12
1.10114e-13
4.09683e-09
-2.50531e-12
8.44607e-14
5.06122e-09
-2.95959e-12
4.2766e-14
5.78074e-09
-3.33807e-12
-7.55705e-15
6.33826e-09
-3.64007e-12
-6.10186e-14
6.78158e-09
-3.85774e-12
-1.10119e-13
7.13691e-09
-3.97728e-12
-1.43548e-13
7.41715e-09
-3.98198e-12
-1.47312e-13
7.62698e-09
-3.86067e-12
-1.1002e-13
7.76805e-09
-3.62191e-12
-3.41002e-14
7.84573e-09
-3.30965e-12
5.86662e-14
7.87539e-09
-2.97729e-12
1.50257e-13
7.8811e-09
-2.65238e-12
2.11177e-13
7.88203e-09
-2.3108e-12
2.27603e-13
7.88383e-09
-1.95139e-12
2.13003e-13
7.8862e-09
-1.58654e-12
1.71504e-13
7.88855e-09
-1.22601e-12
1.09748e-13
7.89085e-09
-8.74983e-13
2.75999e-14
7.89315e-09
-5.39326e-13
-7.60682e-14
7.89539e-09
-2.38949e-13
-1.82963e-13
7.89751e-09
-1.94009e-15
-2.77177e-13
7.89937e-09
1.80003e-13
-2.9069e-13
7.90094e-09
2.5893e-13
-2.34043e-13
7.90422e-09
2.12247e-13
-1.59994e-13
7.90773e-09
4.1458e-14
-8.85375e-14
7.90953e-09
-2.16444e-13
-3.57889e-14
7.90977e-09
-5.18903e-13
-8.26902e-15
7.90948e-09
-8.27624e-13
-6.74409e-15
7.90946e-09
-1.10481e-12
-2.96798e-14
7.90983e-09
-1.30801e-12
-7.37399e-14
7.91004e-09
-1.39431e-12
-1.3191e-13
7.90904e-09
-1.3492e-12
-1.90247e-13
7.90617e-09
-1.18701e-12
-2.3465e-13
7.90266e-09
-9.57534e-13
-2.37986e-13
7.90063e-09
-6.69172e-13
-1.3528e-13
7.8992e-09
-3.3636e-13
6.04602e-16
7.89729e-09
9.40308e-15
1.32169e-13
7.89515e-09
3.62095e-13
2.31447e-13
7.89288e-09
7.18207e-13
2.95309e-13
7.89055e-09
1.07386e-12
3.2837e-13
7.88821e-09
1.42053e-12
3.34685e-13
7.88578e-09
1.74326e-12
3.0353e-13
7.88321e-09
2.0399e-12
2.21772e-13
7.88089e-09
2.31863e-12
1.15914e-13
7.87948e-09
2.54826e-12
6.43509e-15
7.87746e-09
2.6614e-12
-6.80211e-14
7.86616e-09
2.59991e-12
-1.05959e-13
7.83295e-09
2.3654e-12
-9.55551e-14
7.77226e-09
2.00632e-12
-5.39357e-14
7.69211e-09
1.58539e-12
-4.08835e-15
7.60826e-09
1.16316e-12
2.70724e-14
7.53566e-09
7.86665e-13
2.52419e-14
7.48347e-09
4.85725e-13
-6.75258e-15
7.45498e-09
2.58142e-13
-4.23221e-14
7.44846e-09
6.87376e-14
-3.36429e-14
7.45873e-09
-4.88644e-14
-3.90893e-14
7.48331e-09
-3.28718e-14
-7.64687e-14
7.51089e-09
1.12957e-13
-1.10609e-13
7.5266e-09
3.52496e-13
-1.3478e-13
7.52855e-09
6.07218e-13
-1.10203e-13
7.52793e-09
8.60276e-13
-1.98941e-14
7.5269e-09
1.11681e-12
8.37496e-14
7.52582e-09
1.37474e-12
1.74663e-13
7.52467e-09
1.63043e-12
2.43986e-13
7.52347e-09
1.88198e-12
2.89712e-13
7.52223e-09
2.12943e-12
3.11312e-13
7.52097e-09
2.3551e-12
3.02533e-13
7.51947e-09
2.56028e-12
2.64817e-13
7.51798e-09
2.76943e-12
2.29418e-13
7.51808e-09
2.98294e-12
1.55374e-13
7.51697e-09
3.15925e-12
6.65641e-14
7.49504e-09
3.24094e-12
-1.76703e-14
7.42127e-09
3.21191e-12
-6.97988e-14
7.27413e-09
3.07901e-12
-8.53142e-14
7.04384e-09
2.85505e-12
-7.20954e-14
6.72439e-09
2.55005e-12
-4.12226e-14
6.30503e-09
2.16856e-12
-2.59829e-15
5.76268e-09
1.71061e-12
3.57023e-14
5.05229e-09
1.18279e-12
6.48886e-14
4.09305e-09
6.43217e-13
7.1841e-14
2.77311e-09
2.97618e-13
4.33639e-14
1.17359e-09
1.10763e-13
2.57516e-14
5.8988e-10
1.13609e-14
2.377e-10
-1.21333e-13
2.73492e-14
2.34123e-10
-3.22814e-13
6.47589e-14
5.75371e-10
-6.91313e-13
1.1856e-13
1.13012e-09
-1.26592e-12
2.2592e-13
2.63261e-09
-1.84098e-12
2.70551e-13
3.89178e-09
-2.36151e-12
2.74441e-13
4.83475e-09
-2.82213e-12
2.60218e-13
5.55841e-09
-3.22314e-12
2.38894e-13
6.13374e-09
-3.56025e-12
2.16299e-13
6.60358e-09
-3.8209e-12
1.99064e-13
6.99273e-09
-3.98403e-12
1.97916e-13
7.31271e-09
-4.02282e-12
2.27289e-13
7.56393e-09
-3.91587e-12
2.98019e-13
7.74035e-09
-3.66824e-12
3.99122e-13
7.8398e-09
-3.35956e-12
5.06082e-13
7.87576e-09
-3.04253e-12
5.60942e-13
7.88057e-09
-2.71105e-12
6.06932e-13
7.88118e-09
-2.35208e-12
6.37304e-13
7.88313e-09
-1.96979e-12
6.47054e-13
7.88571e-09
-1.58414e-12
6.10784e-13
7.88814e-09
-1.20168e-12
5.41862e-13
7.89045e-09
-8.25381e-13
4.47026e-13
7.89278e-09
-4.59614e-13
3.27145e-13
7.89515e-09
-1.28625e-13
2.19428e-13
7.89744e-09
1.16368e-13
1.66174e-13
7.89907e-09
2.85994e-13
1.72862e-13
7.89614e-09
3.35002e-13
2.68167e-13
7.88624e-09
2.51135e-13
3.79468e-13
7.87074e-09
5.78364e-14
4.74824e-13
7.85453e-09
-2.08532e-13
5.40838e-13
7.84166e-09
-5.13069e-13
5.7489e-13
7.83425e-09
-8.24399e-13
5.78388e-13
7.83311e-09
-1.11101e-12
5.52951e-13
7.83834e-09
-1.33704e-12
4.99897e-13
7.84946e-09
-1.46202e-12
4.22702e-13
7.86493e-09
-1.45127e-12
3.31964e-13
7.88137e-09
-1.29926e-12
2.47092e-13
7.89394e-09
-1.07183e-12
2.22073e-13
7.89943e-09
-7.50807e-13
2.88197e-13
7.89935e-09
-3.81889e-13
4.10177e-13
7.8973e-09
-5.69679e-15
5.61801e-13
7.89492e-09
3.74186e-13
6.79243e-13
7.89256e-09
7.56544e-13
7.52063e-13
7.8902e-09
1.13818e-12
7.91615e-13
7.88786e-09
1.51036e-12
7.99187e-13
7.88538e-09
1.85896e-12
7.4592e-13
7.88274e-09
2.17659e-12
6.49361e-13
7.88055e-09
2.46607e-12
5.57215e-13
7.87928e-09
2.70451e-12
4.99131e-13
7.87591e-09
2.82766e-12
4.3284e-13
7.85086e-09
2.75895e-12
3.97885e-13
7.78017e-09
2.51155e-12
3.9721e-13
7.66081e-09
2.14344e-12
4.165e-13
7.51293e-09
1.71617e-12
4.48199e-13
7.36942e-09
1.28482e-12
4.62649e-13
7.25713e-09
8.82586e-13
4.49234e-13
7.18612e-09
5.22024e-13
4.15446e-13
7.1569e-09
2.08048e-13
3.81934e-13
7.16755e-09
-3.02855e-14
3.69999e-13
7.21626e-09
-1.67834e-13
3.47186e-13
7.30001e-09
-1.68462e-13
2.95367e-13
7.40155e-09
-1.0424e-14
2.33874e-13
7.48437e-09
2.59959e-13
1.72906e-13
7.52208e-09
5.2357e-13
1.59831e-13
7.52802e-09
7.95815e-13
2.34876e-13
7.52702e-09
1.06465e-12
3.49892e-13
7.52565e-09
1.33546e-12
4.52965e-13
7.52435e-09
1.60669e-12
5.30218e-13
7.52306e-09
1.87597e-12
5.83118e-13
7.52178e-09
2.14339e-12
6.04757e-13
7.52047e-09
2.39519e-12
5.76399e-13
7.51895e-09
2.61334e-12
5.33242e-13
7.51754e-09
2.81944e-12
4.99877e-13
7.51744e-09
3.02293e-12
4.58183e-13
7.51601e-09
3.20528e-12
3.65927e-13
7.48633e-09
3.27482e-12
2.77189e-13
7.38943e-09
3.21745e-12
2.07505e-13
7.20608e-09
3.04888e-12
1.70658e-13
6.93373e-09
2.79053e-12
1.61505e-13
6.57386e-09
2.45932e-12
1.6966e-13
6.1206e-09
2.06503e-12
1.8592e-13
5.55411e-09
1.61187e-12
2.02121e-13
4.83473e-09
1.10805e-12
2.06545e-13
3.89333e-09
6.04326e-13
1.78094e-13
2.63405e-09
2.81766e-13
9.58425e-14
1.1306e-09
1.05605e-13
5.31736e-14
5.75542e-10
2.26604e-14
2.34174e-10
-1.0848e-13
3.74357e-14
2.26546e-10
-2.83052e-13
8.73348e-14
5.44402e-10
-5.93617e-13
1.56511e-13
1.03802e-09
-1.07465e-12
2.9271e-13
2.34126e-09
-1.57305e-12
3.63443e-13
3.46508e-09
-2.04811e-12
3.93378e-13
4.34587e-09
-2.4925e-12
4.0604e-13
5.05074e-09
-2.90224e-12
4.12205e-13
5.63173e-09
-3.26966e-12
4.16724e-13
6.12556e-09
-3.57841e-12
4.24757e-13
6.55892e-09
-3.80064e-12
4.46997e-13
6.94797e-09
-3.90089e-12
5.03811e-13
7.29232e-09
-3.85408e-12
6.18279e-13