/*--------------------------------*- C++ -*----------------------------------*\
  =========                 |
  \\      /  F ield         | OpenFOAM: The Open Source CFD Toolbox
   \\    /   O peration     | Website:  https://openfoam.org
    \\  /    A nd           | Version:  7
     \\/     M anipulation  |
\*---------------------------------------------------------------------------*/
FoamFile
{
    version     2.0;
    format      ascii;
    class       volScalarField;
    location    "1000";
    object      strainRate;
}
// * * * * * * * * * * * * * * * * * * * * * * * * * * * * * * * * * * * * * //

dimensions      [0 0 -1 0 0 0 0];

internalField   nonuniform List<scalar> 
46980
(
0.219848
0.326786
0.459891
0.636771
0.810145
0.950748
1.05761
1.13738
1.19691
1.24156
1.27519
1.30053
1.31954
1.33367
1.34403
1.35147
1.35672
1.36034
1.36279
1.36443
1.36553
1.36626
1.36676
1.36711
1.36736
1.36754
1.36768
1.36778
1.36786
1.3679
1.36793
1.36793
1.36791
1.36788
1.36782
1.36774
1.36765
1.36754
1.36741
1.36725
1.36707
1.36684
1.36655
1.36618
1.36569
1.36503
1.36417
1.36304
1.36162
1.35995
1.35805
1.35603
1.354
1.35209
1.35039
1.34896
1.34783
1.34697
1.34638
1.346
1.3458
1.34571
1.3457
1.34569
1.34563
1.34545
1.34508
1.34443
1.34336
1.34166
1.33901
1.33498
1.32899
1.32029
1.30796
1.2908
1.26726
1.23531
1.19214
1.13386
1.0551
0.949053
0.809083
0.636204
0.459657
0.326697
0.219827
0.334455
0.289749
0.431566
0.828167
1.20501
1.53002
1.80193
2.02361
2.20136
2.34236
2.45314
2.53921
2.60511
2.65462
2.69097
2.71699
2.73511
2.74745
2.75571
2.76121
2.76491
2.76743
2.76921
2.77052
2.77153
2.77233
2.77296
2.77347
2.77386
2.77414
2.77429
2.77432
2.77423
2.77403
2.77373
2.77333
2.77286
2.77231
2.77168
2.77099
2.77021
2.76931
2.76824
2.76691
2.76518
2.76287
2.75974
2.75554
2.75009
2.74335
2.73551
2.72696
2.71826
2.71002
2.70277
2.69685
2.69231
2.68902
2.68681
2.68545
2.68478
2.6846
2.68468
2.68473
2.68454
2.68394
2.68273
2.68062
2.6772
2.67173
2.66316
2.64994
2.62998
2.60068
2.55889
2.50093
2.42256
2.31881
2.18389
2.01112
1.79337
1.52445
1.20166
0.826471
0.431002
0.28954
0.334373
0.444785
0.399939
0.76644
1.32051
1.67813
2.00599
2.30286
2.56151
2.78045
2.96173
3.10888
3.22581
3.31639
3.38451
3.434
3.46866
3.4921
3.50755
3.51763
3.52425
3.5287
3.5318
3.53408
3.53584
3.53727
3.53846
3.53945
3.54026
3.54091
3.54138
3.54165
3.54171
3.54156
3.54121
3.54069
3.54003
3.53923
3.53831
3.53731
3.53622
3.53503
3.53372
3.53221
3.53038
3.52806
3.52495
3.52059
3.51444
3.50592
3.49473
3.48102
3.46549
3.44934
3.43397
3.4207
3.41037
3.40309
3.39831
3.39523
3.39358
3.39321
3.39368
3.3944
3.3949
3.39489
3.39427
3.3929
3.39054
3.38666
3.38045
3.37053
3.35474
3.33008
3.29263
3.23793
3.16121
3.05764
2.9225
2.75138
2.54061
2.28827
1.99612
1.67174
1.3167
0.764811
0.399491
0.444629
0.53028
0.527282
1.11226
1.65745
1.71472
1.76473
1.83876
1.92341
2.00941
2.09055
2.16272
2.22329
2.27097
2.30582
2.32915
2.34327
2.35097
2.3549
2.35697
2.35823
2.35918
2.36003
2.36085
2.36166
2.36247
2.36329
2.36405
2.36474
2.3653
2.36571
2.36594
2.36599
2.36587
2.36556
2.36509
2.36448
2.36377
2.36298
2.36217
2.36136
2.36053
2.35968
2.35881
2.35789
2.35686
2.35555
2.35356
2.35013
2.34412
2.33442
2.32057
2.30319
2.28391
2.26506
2.249
2.2375
2.23118
2.2287
2.22721
2.22742
2.22932
2.2318
2.23379
2.23484
2.23521
2.2352
2.23502
2.23477
2.23447
2.23401
2.233
2.23059
2.22488
2.21295
2.1916
2.15819
2.1113
2.05116
1.97991
1.90172
1.82299
1.75336
1.7066
1.65184
1.10952
0.526597
0.530065
0.589167
0.627435
1.39406
1.94535
1.73932
1.54144
1.41846
1.34468
1.30235
1.27999
1.26912
1.26323
1.25762
1.24959
1.23878
1.22656
1.21505
1.20606
1.19989
1.19605
1.19385
1.19264
1.19209
1.19191
1.19204
1.19235
1.19284
1.19342
1.19386
1.19404
1.19409
1.19414
1.19413
1.19404
1.19374
1.19315
1.19253
1.19199
1.19162
1.19124
1.19087
1.19062
1.19046
1.19052
1.19096
1.19181
1.19314
1.1945
1.19424
1.18988
1.17942
1.16252
1.14106
1.11832
1.09792
1.08325
1.07661
1.07715
1.07826
1.08261
1.08902
1.09434
1.09695
1.09757
1.09764
1.09782
1.09846
1.09988
1.10254
1.10707
1.11439
1.12563
1.14138
1.16019
1.17977
1.19877
1.21786
1.24042
1.27241
1.32232
1.40189
1.52917
1.73014
1.93861
1.39063
0.626632
0.58894
0.624947
0.693447
1.59155
2.15608
1.76428
1.39318
1.14434
0.976644
0.858823
0.772584
0.706358
0.652274
0.604986
0.561901
0.523233
0.491283
0.46818
0.453575
0.444938
0.439871
0.436926
0.435246
0.434333
0.433836
0.433494
0.43332
0.433987
0.434805
0.435126
0.434917
0.434662
0.434634
0.434833
0.435142
0.435089
0.434417
0.433528
0.433248
0.433344
0.433361
0.433378
0.433381
0.433605
0.434113
0.435057
0.436871
0.440161
0.445773
0.45294
0.457964
0.456647
0.446369
0.427779
0.404147
0.379628
0.3584
0.34437
0.34016
0.347031
0.359443
0.371426
0.377937
0.378443
0.377218
0.376471
0.376348
0.376944
0.378465
0.381381
0.38656
0.395403
0.410572
0.436543
0.475183
0.525011
0.583427
0.650207
0.728651
0.825575
0.952103
1.12652
1.38028
1.75482
2.14926
1.58816
0.69271
0.624764
0.642054
0.726397
1.69443
2.26922
1.78003
1.31666
1.00484
0.794583
0.643709
0.527573
0.43207
0.349226
0.275637
0.211529
0.159969
0.125028
0.106163
0.0970504
0.0925394
0.0899798
0.0884545
0.0876196
0.0871879
0.0869337
0.08658
0.0861367
0.0870315
0.0881458
0.0883478
0.0877858
0.0872307
0.0871185
0.0875594
0.0881679
0.0883461
0.0875236
0.0863723
0.0863102
0.0867061
0.0868379
0.0869283
0.0869683
0.0871267
0.0874704
0.0879898
0.0889715
0.0911012
0.0962424
0.10641
0.120634
0.133414
0.13858
0.133157
0.117861
0.0952996
0.068319
0.0409863
0.0236418
0.0360023
0.0548043
0.0672955
0.0702369
0.0672801
0.065555
0.0647326
0.0644981
0.0646795
0.0652966
0.0665478
0.0688685
0.0729216
0.0806054
0.0974771
0.133259
0.192453
0.270835
0.364687
0.473891
0.603507
0.765938
0.985178
1.30351
1.77134
2.26368
1.69192
0.725903
0.641968
0.643257
0.72772
1.69851
2.27492
1.78408
1.31877
1.00424
0.789175
0.6297
0.49931
0.38263
0.272916
0.172019
0.0894869
0.0360662
0.0125481
0.00631881
0.00548279
0.00544229
0.005235
0.00505221
0.00504229
0.0049869
0.00480888
0.00430001
0.00422031
0.0115985
0.024112
0.0370668
0.047078
0.0526955
0.0536513
0.0497228
0.0412468
0.0291192
0.0159063
0.00594325
0.00386522
0.00460615
0.00491098
0.00499591
0.00509407
0.00511508
0.0051739
0.00532216
0.00526431
0.00490308
0.00602066
0.013066
0.034701
0.0770987
0.132589
0.186884
0.228056
0.250237
0.255335
0.247627
0.228667
0.197471
0.150009
0.0886183
0.0323135
0.00423462
0.00196183
0.00216136
0.00220708
0.00227665
0.00233235
0.00234811
0.0025272
0.00269623
0.00208633
0.00484442
0.0231966
0.0782357
0.172789
0.293558
0.429268
0.579445
0.755604
0.983172
1.30641
1.77749
2.27192
1.69759
0.72762
0.643305
0.62928
0.697351
1.60253
2.17118
1.7756
1.40095
1.14683
0.967914
0.827309
0.699328
0.565011
0.415502
0.259971
0.12369
0.0361113
0.00493717
0.00274822
0.00411666
0.00456899
0.00439171
0.00427299
0.00434202
0.00436568
0.00566097
0.025022
0.0809331
0.162212
0.240608
0.299784
0.337388
0.356391
0.359312
0.34654
0.316153
0.265094
0.19292
0.110666
0.0435387
0.0100758
0.00431435
0.00434033
0.00435293
0.00431964
0.00440808
0.00460533
0.00426452
0.00321873
0.00454648
0.0333611
0.124838
0.281813
0.475193
0.670066
0.813936
0.893165
0.925765
0.925672
0.894299
0.821226
0.690229
0.485299
0.24873
0.0802955
0.0109601
0.00241169
0.00256243
0.0024961
0.00248882
0.00253636
0.00274311
0.00270743
0.00167479
0.0021984
0.0302551
0.120277
0.266329
0.436436
0.605586
0.766718
0.932029
1.12731
1.39166
1.77252
2.17149
1.60348
0.697685
0.629472
0.599437
0.633551
1.40786
1.96366
1.7546
1.55694
1.43291
1.35072
1.28362
1.20466
1.08071
0.880606
0.616143
0.352063
0.144603
0.0339194
0.00421563
0.00338659
0.00433675
0.0046652
0.00455123
0.00453302
0.00777767
0.0530453
0.197173
0.452048
0.712707
0.897848
1.01057
1.07321
1.10251
1.10687
1.08764
1.03883
0.946408
0.78886
0.552938
0.290575
0.104585
0.0209084
0.00470492
0.00453788
0.00452921
0.00468947
0.00440654
0.00349372
0.00501872
0.0411989
0.183097
0.471878
0.880668
1.33252
1.80054
2.04142
2.12962
2.15538
2.15259
2.12622
2.06009
1.90478
1.53843
0.906905
0.398592
0.11225
0.0125824
0.00236997
0.00264786
0.0026899
0.00280667
0.0025454
0.00206739
0.00276896
0.033891
0.147933
0.357735
0.619953
0.881657
1.08492
1.22071
1.32081
1.42066
1.55379
1.75606
1.96707
1.41031
0.634237
0.599746
0.55354
0.534232
1.12002
1.66659
1.72479
1.78304
1.86724
1.96023
2.04647
2.10348
2.08358
1.88026
1.41105
0.921118
0.477814
0.178592
0.0397605
0.00501209
0.00317984
0.00423403
0.00456282
0.00761663
0.0650645
0.2778
0.743427
1.47002
1.95526
2.17421
2.27035
2.31288
2.33007
2.33278
2.32251
2.29235
2.2212
2.05472
1.66585
0.999191
0.46039
0.146751
0.0248329
0.00442603
0.00467607
0.00463014
0.00351093
0.00441081
0.0399245
0.20541
0.599948
1.25195
2.07229
2.78111
3.59149
3.58867
3.51112
3.46022
3.44092
3.45198
3.49309
3.55604
3.48369
2.26531
1.13223
0.431149
0.101856
0.0081358
0.00303704
0.0030737
0.00263696
0.00176513
0.00400485
0.0466653
0.20144
0.509298
0.934388
1.38676
1.8162
1.99907
2.01099
1.95173
1.86889
1.78807
1.7305
1.67182
1.12303
0.535058
0.553905
0.496529
0.40293
0.747469
1.28783
1.64493
1.98268
2.29828
2.58785
2.85582
3.11166
3.35937
3.49489
2.76149
2.02738
1.1759
0.552148
0.192314
0.0426398
0.00613107
0.00318321
0.0067514
0.0551701
0.265396
0.808535
1.87967
3.51757
3.72327
3.66734
3.60954
3.57086
3.55113
3.54882
3.56408
3.59942
3.65871
3.73716
3.67513
2.41664
1.24027
0.503153
0.139492
0.0191667
0.00408305
0.00359528
0.00316252
0.0274282
0.173331
0.586
1.38666
2.60739
3.82211
3.99087
3.4118
2.80196
2.62851
2.55581
2.53469
2.55635
2.63418
2.83863
3.69375
4.16578
2.33594
1.01203
0.326599
0.0594944
0.00265517
0.00223033
0.00162306
0.00428947
0.0529088
0.238015
0.638153
1.26375
2.02316
2.65259
3.30463
3.15757
2.89484
2.61457
2.31596
1.99437
1.65265
1.29277
0.749805
0.403634
0.496878
0.4438
0.273402
0.330829
0.669656
1.02008
1.33132
1.60251
1.83983
2.05769
2.28241
2.57895
3.31209
3.96675
3.74612
2.3401
1.21295
0.526794
0.181219
0.0517267
0.0244547
0.0493716
0.191738
0.620094
1.62814
3.58751
4.0598
3.01373
2.75163
2.64427
2.59148
2.56816
2.56595
2.58442
2.63086
2.72688
2.94991
3.85021
4.36541
2.48756
1.12191
0.401127
0.0970313
0.0131132
0.00437685
0.0163536
0.11227
0.440439
1.18986
2.55601
4.31763
3.66914
2.33129
1.16852
0.834355
0.738934
0.707463
0.69869
0.705998
0.74467
0.891715
1.52489
3.65139
3.55871
1.71686
0.653395
0.178582
0.0255627
0.00260901
0.00610965
0.0516611
0.23359
0.665476
1.42852
2.52911
3.60195
3.70814
3.10489
2.42102
2.11683
1.86914
1.61796
1.33978
1.02473
0.672024
0.331773
0.273854
0.444096
0.409064
0.208508
0.170787
0.233923
0.330157
0.417438
0.489211
0.548853
0.603716
0.669425
0.793234
1.1617
2.36962
3.80974
3.78479
2.10716
1.01561
0.434656
0.17818
0.10539
0.155136
0.384429
0.960326
2.11517
3.691
2.93493
1.15713
0.799659
0.724905
0.705166
0.700223
0.700683
0.705557
0.719799
0.762937
0.915533
1.56904
3.78718
3.72513
1.84925
0.75844
0.254314
0.0694433
0.0323765
0.0747654
0.269992
0.787706
1.88249
3.71817
3.72345
1.5074
0.734786
0.40509
0.281015
0.23439
0.217368
0.214265
0.224182
0.262041
0.390206
0.892049
2.76366
3.539
2.08453
0.941994
0.343056
0.0986808
0.0372562
0.0627863
0.205965
0.583
1.32888
2.56349
4.05516
3.42225
2.17833
1.09072
0.755482
0.633491
0.560942
0.494815
0.420331
0.331778
0.234867
0.171353
0.208856
0.409314
0.388111
0.177903
0.111627
0.106075
0.12533
0.148194
0.167925
0.184887
0.202618
0.229328
0.286109
0.435407
0.887015
2.3888
3.92551
2.81716
1.52854
0.740523
0.362644
0.239465
0.294824
0.563177
1.17579
2.26614
3.50154
2.59243
0.790313
0.351304
0.249517
0.220857
0.212527
0.211423
0.21516
0.228115
0.267572
0.39787
0.909054
2.83316
3.66322
2.21157
1.06027
0.444899
0.179705
0.111772
0.184783
0.456321
1.0766
2.22241
3.65117
2.824
0.904525
0.360781
0.190626
0.124546
0.0964362
0.0857477
0.0863783
0.0999848
0.140332
0.265418
0.738704
2.49381
3.36742
2.19658
1.12768
0.504252
0.21734
0.134899
0.201513
0.461746
1.04303
2.10559
3.62399
3.39798
1.39184
0.696074
0.38902
0.269753
0.219206
0.192099
0.171318
0.149966
0.126372
0.106758
0.112078
0.178188
0.388319
0.375397
0.162743
0.0885636
0.0653973
0.0631371
0.0680571
0.0743795
0.0812059
0.0902167
0.105873
0.138817
0.218231
0.440074
1.16308
3.24466
3.50778
1.996
1.02645
0.55455
0.388036
0.432343
0.7
1.28553
2.26546
3.29397
2.39068
0.698502
0.249487
0.134582
0.0982236
0.0852285
0.0822935
0.0868046
0.102185
0.143296
0.26911
0.746333
2.52927
3.44698
2.3047
1.24798
0.618799
0.318066
0.23304
0.321629
0.625565
1.25573
2.30727
3.4387
2.5263
0.75006
0.261734
0.122253
0.0715374
0.0502204
0.0426768
0.0452654
0.060243
0.101354
0.226015
0.681854
2.32363
3.19073
2.19516
1.231
0.638864
0.352619
0.278374
0.391489
0.754855
1.50107
2.6902
3.64387
2.18305
0.708184
0.312233
0.179686
0.125081
0.0995974
0.0859346
0.0768742
0.0694687
0.0640087
0.0659658
0.088924
0.162972
0.375565
0.367346
0.154399
0.0783072
0.0503715
0.0413945
0.0402676
0.0421717
0.0457649
0.0517847
0.0629876
0.0863104
0.141264
0.293104
0.799621
2.51385
3.30339
2.15531
1.22039
0.720833
0.528492
0.556651
0.803793
1.33444
2.19766
3.07956
2.21999
0.65297
0.216984
0.0985425
0.0597032
0.0450814
0.0413488
0.0460204
0.06195
0.103231
0.227304
0.681736
2.32696
3.22644
2.28289
1.35369
0.765865
0.464876
0.374971
0.466931
0.76933
1.35683
2.2825
3.22062
2.32514
0.68529
0.226518
0.0960573
0.0503107
0.032012
0.02619
0.0294919
0.0445889
0.0859149
0.209312
0.644914
2.17335
3.00416
2.1389
1.28539
0.750099
0.487796
0.435233
0.588746
1.02679
1.91397
3.28418
3.01426
1.08558
0.395555
0.182179
0.105421
0.0727985
0.0571035
0.0487542
0.0439125
0.0413274
0.0420677
0.0508037
0.0785808
0.154578
0.36748
0.361873
0.149196
0.0728389
0.0437284
0.032656
0.0292788
0.0293768
0.0315522
0.0361158
0.0450873
0.0640335
0.109254
0.236681
0.672963
2.19142
2.9991
2.12482
1.32403
0.858646
0.662654
0.677262
0.895961
1.35825
2.09813
2.8494
2.04665
0.613168
0.200997
0.0838479
0.0446341
0.0300805
0.0263365
0.0306518
0.0460315
0.0868046
0.20792
0.635657
2.14029
2.9931
2.20881
1.41838
0.900576
0.621032
0.53381
0.62205
0.902047
1.4192
2.20744
2.98901
2.13899
0.63806
0.208545
0.0840375
0.0406948
0.0241444
0.019395
0.0227851
0.0375143
0.078384
0.198121
0.60811
2.01463
2.79624
2.0529
1.31848
0.853226
0.62423
0.593775
0.769805
1.21921
2.04726
3.06237
2.32618
0.753434
0.275514
0.128092
0.0737509
0.0504151
0.0391902
0.0333993
0.0305245
0.030012
0.0331338
0.0440408
0.0730429
0.149335
0.361981
0.357685
0.145463
0.0693566
0.0401774
0.0285808
0.0243984
0.0236846
0.0251003
0.0287935
0.0364532
0.0530347
0.0933108
0.207791
0.597484
1.93152
2.68956
2.02505
1.38463
0.989339
0.808878
0.814525
1.00012
1.38291
1.98451
2.59405
1.85255
0.567323
0.187659
0.0758824
0.0377618
0.0240089
0.0206126
0.0243781
0.0387271
0.0780454
0.193194
0.58702
1.93746
2.73261
2.10851
1.47291
1.04507
0.802359
0.723491
0.802742
1.04544
1.47264
2.10695
2.72977
1.93655
0.588482
0.193889
0.0768427
0.0359222
0.0208723
0.0169302
0.020095
0.0339994
0.0732366
0.186336
0.563812
1.83108
2.55759
1.95117
1.35234
0.968074
0.776805
0.763147
0.937505
1.33724
2.00859
2.73723
1.9892
0.625306
0.223329
0.102263
0.0581995
0.0394825
0.0306286
0.0262541
0.0244327
0.0248955
0.0289156
0.0404025
0.0695103
0.145572
0.357771
0.353845
0.142308
0.0667882
0.0380341
0.0265344
0.022141
0.0210563
0.0220138
0.0250947
0.0317825
0.0465684
0.0828221
0.185359
0.527424
1.66993
2.36716
1.90624
1.44501
1.14519
0.998066
0.998503
1.14244
1.42959
1.86857
2.30657
1.62482
0.509551
0.171835
0.0695894
0.0343039
0.0219812
0.0191014
0.0222325
0.0350213
0.0713231
0.176591
0.527027
1.69988
2.43454
1.99643
1.54106
1.22531
1.03712
0.973782
1.03714
1.2251
1.54034
1.99498
2.43259
1.69927
0.527876
0.177052
0.0706643
0.0333497
0.0201369
0.0169373
0.0196731
0.0321047
0.0681055
0.171039
0.507086
1.61087
2.28217
1.84458
1.40673
1.1192
0.973106
0.970264
1.11848
1.4277
1.90999
2.39843
1.6984
0.538927
0.192061
0.0872266
0.0493978
0.0335642
0.0262277
0.0227542
0.021554
0.0224834
0.0267727
0.0381996
0.066905
0.142393
0.353912
0.349475
0.139148
0.0647246
0.0368389
0.0257848
0.0214531
0.020207
0.0208551
0.0234206
0.02916
0.0419727
0.0733872
0.161179
0.447094
1.38034
2.02294
1.79259
1.54011
1.36774
1.27772
1.27527
1.35864
1.52091
1.76179
1.98444
1.35386
0.435194
0.150992
0.0630153
0.0326616
0.0224747
0.0201966
0.0226476
0.0332016
0.0644241
0.155013
0.449904
1.41559
2.09488
1.88503
1.64627
1.47632
1.37107
1.33478
1.37086
1.47583
1.64541
1.88381
2.09356
1.4152
0.450363
0.155219
0.0639306
0.0320841
0.0213127
0.0188477
0.021031
0.0312529
0.0620284
0.150387
0.433502
1.34517
1.96853
1.74476
1.50397
1.34193
1.25876
1.26231
1.35637
1.53728
1.80193
2.04303
1.39525
0.452552
0.164359
0.0756711
0.0435771
0.0302393
0.0241396
0.0213436
0.0205467
0.0216951
0.0259586
0.0369633
0.0648135
0.139213
0.349527
0.343471
0.135544
0.0631837
0.0367679
0.0264475
0.0223397
0.0210643
0.0215143
0.0236216
0.0283309
0.0386979
0.06372
0.132168
0.34923
1.0502
1.65614
1.70235
1.70407
1.70551
1.70392
1.69998
1.69371
1.68504
1.67843
1.63182
1.03456
0.340772
0.124336
0.0561894
0.0329326
0.0253681
0.0236777
0.0254846
0.0333153
0.0572599
0.127443
0.351785
1.07921
1.7183
1.7892
1.81625
1.84142
1.85758
1.86288
1.85726
1.8408
1.81539
1.78821
1.71743
1.07898
0.351991
0.127439
0.0568027
0.0325148
0.0246124
0.0228132
0.0244418
0.0319765
0.0554366
0.123815
0.339659
1.02954
1.62182
1.66642
1.67238
1.68151
1.68944
1.69652
1.70299
1.70784
1.71221
1.66897
1.05811
0.352056
0.13384
0.0649936
0.0396497
0.0290039
0.02409
0.0218442
0.0213019
0.0225146
0.0265752
0.0368617
0.0632524
0.135594
0.34351
0.33411
0.131243
0.0627835
0.038708
0.0294457
0.0257718
0.0246761
0.0251286
0.0269405
0.0306864
0.0383924
0.0559389
0.101106
0.235719
0.674366
1.26253
1.60592
1.87482
2.06346
2.1585
2.15424
2.05168
1.85822
1.58834
1.24778
0.665618
0.229941
0.0959264
0.0520261
0.0368082
0.0316883
0.0304685
0.0317659
0.0370545
0.0527308
0.0979446
0.236548
0.690971
1.3057
1.67789
1.98223
2.21332
2.35681
2.40525
2.35645
2.21268
1.98144
1.67711
1.30513
0.690854
0.236578
0.0977815
0.0522983
0.0364859
0.0311972
0.0299086
0.0310919
0.0361605
0.0514278
0.0954564
0.229262
0.663148
1.24194
1.58013
1.84889
2.04287
2.14774
2.15583
2.06541
1.88095
1.61441
1.27038
0.678215
0.237209
0.102072
0.0567069
0.038982
0.0311161
0.0272498
0.0253543
0.024845
0.025898
0.0295405
0.0387791
0.0628351
0.13128
0.334138
0.318399
0.126598
0.0654492
0.0450535
0.0375028
0.0348216
0.0344016
0.0352574
0.0371197
0.0402746
0.0458605
0.0569735
0.0817085
0.141208
0.292542
0.676101
1.02112
1.28818
1.46993
1.56053
1.55803
1.46317
1.27912
1.01229
0.669648
0.288971
0.138484
0.0799978
0.0570376
0.0480657
0.0446094
0.0437
0.0446653
0.0482222
0.0574445
0.0810663
0.141351
0.297173
0.694505
1.05857
1.35008
1.56274
1.69145
1.7344
1.69124
1.56236
1.34962
1.05815
0.694221
0.297087
0.141241
0.0808245
0.057091
0.0478407
0.0442966
0.0433351
0.0442261
0.0476444
0.0565988
0.0795947
0.138058
0.288131
0.667191
1.00834
1.27442
1.45882
1.55519
1.56005
1.47202
1.29223
1.02574
0.679601
0.293937
0.141988
0.0823011
0.0574517
0.0462293
0.0405493
0.0373249
0.0354134
0.0345209
0.0349127
0.0375726
0.0451054
0.0654876
0.126626
0.318419
0.291066
0.124199
0.0770013
0.0631701
0.0592414
0.0589051
0.060013
0.0617895
0.064081
0.0671216
0.071587
0.0789956
0.0927379
0.120101
0.175379
0.280858
0.389452
0.472537
0.526512
0.55262
0.552085
0.525043
0.470522
0.387405
0.279275
0.174491
0.120021
0.0938835
0.0816926
0.0759871
0.0734091
0.0726721
0.073457
0.0761047
0.0819465
0.0944487
0.121313
0.177458
0.286007
0.399246
0.488205
0.549613
0.585246
0.596886
0.585198
0.549528
0.488096
0.399134
0.285911
0.177362
0.121164
0.0942373
0.0817024
0.0758587
0.0732172
0.0724325
0.0731606
0.0757191
0.0814041
0.0935908
0.119728
0.174126
0.278643
0.386501
0.469518
0.524172
0.551581
0.552643
0.527082
0.473528
0.390565
0.281772
0.175953
0.120535
0.0930964
0.0792872
0.0718159
0.0672993
0.0642192
0.0618972
0.0600966
0.0589707
0.0592916
0.0632078
0.0770284
0.124218
0.291078
0.243507
0.137082
0.119724
0.120156
0.123925
0.127866
0.131314
0.134338
0.137239
0.140429
0.144466
0.150218
0.159165
0.173828
0.19779
0.233319
0.270992
0.30105
0.320667
0.330112
0.329981
0.320311
0.30058
0.270585
0.233209
0.198241
0.175091
0.161487
0.153803
0.149547
0.147394
0.146747
0.147441
0.149653
0.154006
0.161866
0.175811
0.199608
0.235708
0.274604
0.306399
0.328334
0.340886
0.344944
0.340872
0.328307
0.306362
0.274556
0.235646
0.19952
0.175689
0.161718
0.153847
0.149494
0.147282
0.146587
0.147228
0.149372
0.153617
0.161293
0.174896
0.198036
0.232969
0.270309
0.300308
0.320097
0.329875
0.330149
0.32085
0.30135
0.271347
0.233658
0.19808
0.17408
0.159381
0.150398
0.144613
0.140548
0.137334
0.134414
0.131373
0.127913
0.123961
0.120182
0.119741
0.137094
0.243514
0.18098
0.235376
0.281393
0.308806
0.324991
0.334793
0.341069
0.345488
0.349075
0.352546
0.356504
0.361572
0.368487
0.37812
0.391248
0.407726
0.42539
0.440646
0.451278
0.456603
0.456567
0.451195
0.440585
0.42548
0.408144
0.392204
0.379815
0.371107
0.365332
0.36173
0.359775
0.359169
0.35982
0.361831
0.365515
0.371422
0.380347
0.393095
0.409584
0.427671
0.443739
0.455598
0.462651
0.464968
0.462642
0.455581
0.443711
0.427631
0.409528
0.39302
0.380255
0.371318
0.365407
0.361721
0.359709
0.359056
0.35966
0.361612
0.365208
0.370979
0.379684
0.392075
0.408019
0.425361
0.440484
0.451128
0.456553
0.45665
0.451387
0.440804
0.425578
0.407921
0.391434
0.378289
0.368635
0.361698
0.356609
0.352632
0.349146
0.345545
0.341115
0.334828
0.325017
0.308825
0.281405
0.235383
0.180982
0.219954
0.326912
0.46006
0.637002
0.810428
0.951066
1.05796
1.13775
1.19731
1.24197
1.27562
1.30097
1.32
1.33413
1.34449
1.35194
1.35718
1.3608
1.36327
1.36492
1.36603
1.36678
1.36731
1.36768
1.36796
1.36817
1.36833
1.36846
1.36855
1.36862
1.36865
1.36866
1.36863
1.36858
1.3685
1.3684
1.36828
1.36815
1.36798
1.3678
1.36759
1.36735
1.36705
1.36668
1.3662
1.36555
1.3647
1.3636
1.36221
1.36056
1.35869
1.35668
1.35467
1.35276
1.35105
1.34961
1.34845
1.34758
1.34696
1.34656
1.34632
1.34621
1.34616
1.34613
1.34603
1.34583
1.34544
1.34478
1.3437
1.34199
1.33934
1.33531
1.32933
1.32063
1.3083
1.29114
1.2676
1.23565
1.19247
1.13417
1.05539
0.949319
0.809322
0.636401
0.459802
0.326805
0.219919
0.334587
0.289833
0.431695
0.828387
1.20526
1.53028
1.80219
2.02387
2.20162
2.34261
2.45337
2.53943
2.60532
2.6548
2.69114
2.71714
2.73525
2.74759
2.75585
2.76136
2.76506
2.76761
2.76942
2.77076
2.7718
2.77263
2.7733
2.77383
2.77425
2.77455
2.77471
2.77475
2.77465
2.77443
2.7741
2.77367
2.77317
2.77258
2.77193
2.77121
2.7704
2.76948
2.7684
2.76707
2.76534
2.76305
2.75994
2.75577
2.75035
2.74365
2.73585
2.72732
2.71864
2.71041
2.70317
2.69724
2.69268
2.68937
2.68713
2.68575
2.68504
2.68484
2.68487
2.68489
2.68467
2.68404
2.68281
2.6807
2.67727
2.6718
2.66323
2.65002
2.63008
2.60079
2.55902
2.50109
2.42273
2.319
2.18409
2.01133
1.79359
1.52467
1.20188
0.826657
0.431112
0.289611
0.334487
0.444957
0.400056
0.76666
1.3208
1.67838
2.00619
2.30303
2.56164
2.78053
2.96176
3.10886
3.22573
3.31626
3.38432
3.43377
3.46838
3.4918
3.50724
3.5173
3.52392
3.52838
3.53151
3.5338
3.5356
3.53706
3.53829
3.53931
3.54016
3.54084
3.54133
3.54161
3.54167
3.54151
3.54115
3.54059
3.53989
3.53906
3.53811
3.53707
3.53594
3.53473
3.53341
3.53188
3.53005
3.52773
3.52464
3.52031
3.51419
3.50572
3.49458
3.48091
3.46543
3.44931
3.43397
3.42071
3.41037
3.40308
3.39827
3.39516
3.3935
3.39308
3.39351
3.39421
3.39466
3.39464
3.39399
3.39262
3.39024
3.38637
3.38016
3.37024
3.35448
3.32984
3.29243
3.23778
3.16111
3.0576
2.9225
2.75143
2.5407
2.28841
1.99629
1.67195
1.31694
0.764995
0.399591
0.444777
0.530492
0.527436
1.11252
1.6577
1.71483
1.76476
1.83873
1.9233
2.00922
2.0903
2.16239
2.22288
2.27048
2.30525
2.32852
2.34258
2.35024
2.35414
2.35619
2.35744
2.35841
2.35926
2.36008
2.36091
2.36175
2.36259
2.36338
2.3641
2.36468
2.3651
2.36534
2.36539
2.36526
2.36495
2.36445
2.3638
2.36306
2.36224
2.3614
2.36056
2.35972
2.35887
2.35798
2.35707
2.35604
2.35474
2.35276
2.34936
2.3434
2.33376
2.31997
2.30264
2.2834
2.26457
2.24851
2.23701
2.23067
2.22819
2.22669
2.2269
2.22877
2.23122
2.23318
2.23422
2.23457
2.23456
2.23438
2.23414
2.23385
2.2334
2.23241
2.23002
2.22434
2.21246
2.19116
2.15781
2.11098
2.05092
1.97974
1.90161
1.82294
1.75338
1.7067
1.65206
1.10974
0.526723
0.530247
0.589411
0.627612
1.39435
1.94557
1.73935
1.54139
1.41834
1.3445
1.30212
1.27969
1.26875
1.26279
1.25709
1.249
1.23812
1.22581
1.21426
1.20527
1.19915
1.1953
1.19303
1.19181
1.19129
1.19114
1.19124
1.19157
1.19214
1.1928
1.19321
1.19343
1.19353
1.19352
1.19351
1.19338
1.19305
1.19248
1.19179
1.19122
1.19077
1.1904
1.19005
1.18975
1.1896
1.18972
1.19011
1.19094
1.19232
1.1937
1.19352
1.18918
1.17872
1.16196
1.14054
1.11783
1.09745
1.08277
1.0761
1.07664
1.07776
1.08209
1.08847
1.09375
1.09632
1.09695
1.09703
1.09721
1.09786
1.0993
1.10196
1.1065
1.11383
1.12507
1.14083
1.15967
1.1793
1.19835
1.2175
1.24012
1.27217
1.32215
1.40177
1.52911
1.73016
1.9388
1.39088
0.626783
0.58915
0.625214
0.693646
1.59186
2.15628
1.76425
1.39307
1.1442
0.976471
0.858603
0.772314
0.706042
0.651859
0.604557
0.561404
0.522703
0.490758
0.467701
0.453055
0.444415
0.439398
0.436438
0.434738
0.433873
0.433346
0.433031
0.432874
0.433541
0.434372
0.434657
0.434484
0.434215
0.43418
0.434441
0.434713
0.434581
0.433897
0.432999
0.432759
0.432831
0.432865
0.432838
0.432852
0.433085
0.433537
0.434542
0.436284
0.439614
0.445194
0.452298
0.457424
0.456127
0.445955
0.42746
0.40387
0.379369
0.358127
0.344067
0.339809
0.346672
0.35906
0.371008
0.377495
0.378029
0.376898
0.376186
0.376083
0.376692
0.378217
0.381136
0.386311
0.395139
0.410309
0.436199
0.474797
0.524623
0.583066
0.649896
0.728382
0.825342
0.951912
1.12636
1.38016
1.75478
2.14943
1.58842
0.692878
0.624994
0.642333
0.726598
1.69474
2.2694
1.77995
1.31653
1.00469
0.794415
0.643511
0.527348
0.431765
0.348927
0.275288
0.21114
0.159637
0.124886
0.106128
0.0970076
0.0923866
0.0898264
0.088413
0.0875864
0.0871099
0.0868125
0.0865238
0.0860747
0.0868544
0.0879098
0.0881121
0.087609
0.0869981
0.0869424
0.087324
0.0879857
0.0881052
0.0872813
0.086184
0.0861851
0.0866328
0.0867505
0.0867701
0.0868522
0.0870071
0.0872921
0.0878708
0.088861
0.090998
0.0960389
0.106065
0.12023
0.133076
0.138221
0.132955
0.117776
0.095336
0.0684214
0.0411228
0.0236649
0.0358818
0.0546044
0.0670278
0.0699827
0.0671487
0.0655174
0.0647292
0.0645103
0.0646881
0.0653007
0.0665579
0.0688653
0.0729375
0.0806432
0.0974666
0.133102
0.192184
0.270541
0.364402
0.473647
0.603298
0.765752
0.985017
1.30337
1.77126
2.26383
1.69218
0.726079
0.642209
0.643535
0.727928
1.69881
2.27509
1.78401
1.31863
1.00409
0.789005
0.629501
0.499079
0.382376
0.272588
0.171672
0.0892621
0.0360693
0.0128215
0.00673906
0.0059522
0.00592689
0.00575528
0.0056192
0.00558655
0.00551915
0.00535537
0.00490098
0.00476267
0.0118207
0.0241646
0.0370233
0.0470146
0.0525709
0.0534726
0.0496583
0.0412546
0.0291109
0.0160319
0.00638056
0.0044267
0.00515642
0.00548432
0.00560239
0.00560505
0.00560844
0.00567951
0.005779
0.00574173
0.00540283
0.00642747
0.0132171
0.0345146
0.0767731
0.132264
0.18664
0.22787
0.250057
0.255148
0.247407
0.228411
0.197232
0.149785
0.0884347
0.0322781
0.00459408
0.00255371
0.00273106
0.0027625
0.00281681
0.00285428
0.0028735
0.00301016
0.00311355
0.0026123
0.00516471
0.0233118
0.0781226
0.172541
0.293281
0.42901
0.579222
0.755422
0.983007
1.30627
1.77741
2.27208
1.69785
0.727797
0.643546
0.629544
0.697545
1.60283
2.17137
1.77555
1.40083
1.14669
0.967732
0.827078
0.699048
0.564631
0.41512
0.259659
0.123436
0.0361556
0.00547786
0.00347327
0.00465805
0.00506336
0.004983
0.00493328
0.00496462
0.00499258
0.00618917
0.0251281
0.0808667
0.161977
0.24034
0.299435
0.3371
0.356075
0.358993
0.346175
0.315832
0.264737
0.192694
0.110486
0.043604
0.0103916
0.00495426
0.00504365
0.00501764
0.00491966
0.00498499
0.00509657
0.00477712
0.00393805
0.00505331
0.0333193
0.124516
0.281321
0.474687
0.669625
0.813521
0.892802
0.9254
0.925291
0.893912
0.820845
0.689828
0.484894
0.248424
0.0802693
0.011194
0.00295768
0.00307776
0.00302212
0.00299913
0.00302057
0.00315667
0.00309043
0.00222193
0.00269936
0.0303316
0.120139
0.266039
0.43611
0.605295
0.766481
0.931835
1.12715
1.39155
1.77246
2.17165
1.60374
0.697853
0.629701
0.599674
0.633718
1.40814
1.96388
1.75462
1.55686
1.43279
1.35054
1.28336
1.20432
1.08028
0.880034
0.615614
0.351627
0.144419
0.0340467
0.00480234
0.00403651
0.0047816
0.00513343
0.00512517
0.00514976
0.0081788
0.0530169
0.196925
0.451569
0.712185
0.897335
1.01005
1.07271
1.10204
1.10644
1.08717
1.03827
0.945837
0.788265
0.552362
0.290145
0.104488
0.0210473
0.00533921
0.00513178
0.00514915
0.00519409
0.00494104
0.00410185
0.00548992
0.0412072
0.182757
0.471235
0.879931
1.33182
1.79992
2.04092
2.12918
2.15496
2.15217
2.12578
2.05962
1.90424
1.53782
0.906324
0.398198
0.112215
0.0127631
0.0029348
0.00317451
0.00317594
0.00321725
0.00297498
0.00254404
0.00318571
0.0340202
0.147851
0.357406
0.619521
0.881245
1.08457
1.22045
1.32062
1.42053
1.55372
1.75607
1.96726
1.41055
0.634389
0.599953
0.55374
0.53437
1.12028
1.66684
1.7249
1.78307
1.86718
1.96011
2.04626
2.10317
2.08313
1.87963
1.41029
0.920399
0.477291
0.178496
0.0398464
0.00553774
0.00383157
0.00475538
0.00509106
0.00796033
0.0649633
0.277352
0.742735
1.46922
1.95451
2.17354
2.26975
2.31231
2.32952
2.33223
2.32194
2.29174
2.22052
2.0539
1.66497
0.998295
0.459775
0.146521
0.0249036
0.00499335
0.00526863
0.00511782
0.00410705
0.00494839
0.0400119
0.205068
0.599267
1.25102
2.07136
2.78039
3.59113
3.58851
3.51101
3.46012
3.4408
3.45182
3.49286
3.5557
3.48311
2.26454
1.13155
0.430739
0.10179
0.0083304
0.00347712
0.00346539
0.0030444
0.00231571
0.00435765
0.0467785
0.201342
0.508899
0.933818
1.38619
1.81571
1.99872
2.01078
1.9516
1.86884
1.78808
1.73059
1.67204
1.12325
0.53518
0.55408
0.496686
0.403031
0.747665
1.28811
1.64518
1.98288
2.29844
2.58797
2.85589
3.11165
3.35925
3.49452
2.76073
2.02642
1.17497
0.551621
0.192137
0.0427594
0.00661584
0.00388225
0.00712617
0.0550704
0.264924
0.80778
1.8787
3.51673
3.72274
3.66699
3.60931
3.57067
3.55097
3.54867
3.5639
3.59921
3.65842
3.7367
3.67437
2.41554
1.23924
0.502486
0.139292
0.0192962
0.00468075
0.00420161
0.00382712
0.027595