/*--------------------------------*- C++ -*----------------------------------*\
  =========                 |
  \\      /  F ield         | OpenFOAM: The Open Source CFD Toolbox
   \\    /   O peration     | Website:  https://openfoam.org
    \\  /    A nd           | Version:  7
     \\/     M anipulation  |
\*---------------------------------------------------------------------------*/
FoamFile
{
    version     2.0;
    format      ascii;
    class       volVectorField;
    location    "1000";
    object      tauFixed;
}
// * * * * * * * * * * * * * * * * * * * * * * * * * * * * * * * * * * * * * //

dimensions      [1 -1 -2 0 0 0 0];

internalField   nonuniform List<vector> 
46980
(
(-0.0202143 -0.160919 3616.35)
(-0.0722298 0.0261073 3289.11)
(-0.0305062 0.046139 2071.15)
(0.344983 0.193546 486.6)
(0.766843 0.220426 -490.843)
(1.13004 0.435413 -1182.82)
(1.39589 0.468769 -1719.22)
(1.60783 0.56181 -2132.81)
(1.7763 0.60417 -2448.91)
(1.90893 0.660162 -2690.04)
(2.00023 0.730752 -2873.97)
(2.04741 0.737048 -3013.66)
(2.03814 0.753075 -3118.96)
(1.9814 0.726015 -3197.15)
(1.8836 0.76624 -3254.1)
(1.74074 0.716059 -3294.64)
(1.56509 0.740068 -3322.84)
(1.36519 0.74502 -3342.07)
(1.15495 0.722163 -3355.08)
(0.939341 0.740483 -3363.85)
(0.725081 0.773452 -3369.86)
(0.523972 0.820083 -3374.1)
(0.342414 0.867323 -3377.24)
(0.184706 0.950837 -3379.65)
(0.0627487 0.974398 -3381.6)
(-0.0176205 1.05194 -3383.23)
(-0.051403 1.12586 -3384.62)
(-0.0331457 1.17779 -3385.75)
(0.0318194 1.23353 -3386.66)
(0.132328 1.26707 -3387.27)
(0.257088 1.28463 -3387.65)
(0.390467 1.27214 -3387.72)
(0.519034 1.2535 -3387.52)
(0.62691 1.25172 -3387.07)
(0.699599 1.21597 -3386.41)
(0.73573 1.13835 -3385.48)
(0.720514 1.06314 -3384.4)
(0.648502 1.01014 -3383.22)
(0.539949 0.928055 -3381.89)
(0.395577 0.887128 -3380.53)
(0.220596 0.839243 -3379.08)
(0.0297923 0.7988 -3377.5)
(-0.175924 0.77959 -3375.73)
(-0.380119 0.761957 -3373.67)
(-0.588014 0.752395 -3371.06)
(-0.78785 0.795868 -3367.69)
(-0.963804 0.845765 -3363.16)
(-1.11672 0.90878 -3357.07)
(-1.22185 0.978739 -3349.13)
(-1.26489 1.05639 -3339.23)
(-1.24618 1.11379 -3327.56)
(-1.16868 1.15911 -3314.56)
(-1.03761 1.15372 -3301.26)
(-0.867221 1.16238 -3288.52)
(-0.685844 1.14938 -3277.16)
(-0.508831 1.11171 -3267.83)
(-0.355162 1.09724 -3260.56)
(-0.231671 1.04078 -3255.22)
(-0.134289 0.984656 -3251.5)
(-0.067681 0.970856 -3249.07)
(-0.0297696 0.911712 -3247.65)
(-0.0344525 0.853171 -3246.96)
(-0.0891953 0.787799 -3246.63)
(-0.186342 0.697129 -3246.23)
(-0.309782 0.654223 -3245.46)
(-0.45916 0.5843 -3244.05)
(-0.623629 0.548981 -3241.81)
(-0.787254 0.507343 -3238.15)
(-0.949204 0.48659 -3232.51)
(-1.10929 0.497696 -3223.68)
(-1.26471 0.499312 -3210.05)
(-1.40509 0.524458 -3189.14)
(-1.52733 0.521195 -3157.67)
(-1.61986 0.557003 -3111.3)
(-1.6826 0.600252 -3044.7)
(-1.70578 0.568237 -2951.39)
(-1.68294 0.597185 -2823.34)
(-1.62088 0.525174 -2650.16)
(-1.51505 0.513356 -2418.38)
(-1.37289 0.453152 -2110.05)
(-1.19289 0.40565 -1702.72)
(-0.960591 0.297765 -1171.29)
(-0.658975 0.250416 -483.049)
(-0.29491 0.19403 491.293)
(0.0367275 0.0117922 2073.02)
(0.0544941 0.0514155 3290.21)
(0.00939189 -0.134477 3617.11)
(0.33508 -0.202015 3109.38)
(0.171672 -0.127971 2703.82)
(-0.192423 -0.339288 2015.21)
(0.21883 -0.205689 721.637)
(0.776753 -0.0246219 -344.972)
(1.19799 0.176148 -1223.2)
(1.49826 0.277346 -1924.46)
(1.71079 0.341821 -2443.11)
(1.88195 0.417456 -2823.54)
(2.04857 0.507931 -3105.5)
(2.12427 0.582263 -3316.58)
(2.15068 0.633208 -3475.25)
(2.14646 0.635594 -3593.37)
(2.11338 0.630827 -3680.12)
(1.99761 0.616863 -3742.28)
(1.84721 0.603924 -3785.92)
(1.69174 0.583306 -3815.64)
(1.44271 0.588075 -3835.69)
(1.22205 0.612079 -3849.41)
(1.01783 0.61086 -3858.63)
(0.798025 0.694559 -3865.01)
(0.587638 0.731142 -3869.61)
(0.411413 0.798979 -3873.02)
(0.21909 0.879739 -3875.62)
(0.0722038 0.971313 -3877.99)
(0.0213319 1.03846 -3879.86)
(-0.0229734 1.10739 -3881.39)
(-0.00613933 1.1654 -3882.59)
(0.0529008 1.24854 -3883.65)
(0.145018 1.27464 -3884.43)
(0.258752 1.27467 -3884.81)
(0.399992 1.29621 -3885.03)
(0.555194 1.27933 -3884.79)
(0.673173 1.27911 -3884.2)
(0.723287 1.23749 -3883.34)
(0.733378 1.15571 -3882.42)
(0.739792 1.06461 -3881.17)
(0.666075 0.993684 -3879.66)
(0.534092 0.887111 -3878.25)
(0.394735 0.788404 -3876.66)
(0.218143 0.728094 -3874.96)
(0.00938496 0.686414 -3873.21)
(-0.206783 0.63872 -3871.29)
(-0.425498 0.642332 -3869.08)
(-0.622801 0.644098 -3866.39)
(-0.812322 0.71148 -3862.91)
(-1.00693 0.765316 -3858.24)
(-1.16 0.858531 -3851.92)
(-1.26214 0.940499 -3843.28)
(-1.31964 1.04687 -3831.76)
(-1.30288 1.10131 -3817.47)
(-1.23014 1.15137 -3801.11)
(-1.08911 1.18643 -3783.88)
(-0.893605 1.16813 -3767.01)
(-0.718673 1.16465 -3752.15)
(-0.525529 1.14191 -3740.54)
(-0.372534 1.08695 -3732.17)
(-0.281461 1.0232 -3726.62)
(-0.15614 0.996811 -3722.79)
(-0.0793609 0.905876 -3720.26)
(-0.0526902 0.878261 -3719.34)
(-0.0501643 0.786048 -3719.19)
(-0.129459 0.717205 -3719.13)
(-0.224703 0.60348 -3718.83)
(-0.367636 0.513201 -3717.87)
(-0.524638 0.466101 -3716.24)
(-0.687706 0.382852 -3713.57)
(-0.873103 0.317123 -3709.71)
(-1.02005 0.308125 -3703.61)
(-1.18417 0.319331 -3694.34)
(-1.34506 0.338994 -3680.24)
(-1.4973 0.339544 -3658.52)
(-1.61599 0.358644 -3625.6)
(-1.69777 0.406932 -3576.17)
(-1.79077 0.424045 -3503.81)
(-1.8082 0.436861 -3400.68)
(-1.80462 0.423228 -3256.61)
(-1.73724 0.408223 -3058.82)
(-1.60479 0.379754 -2788.07)
(-1.47167 0.315055 -2417.15)
(-1.25165 0.248701 -1906.05)
(-1.01718 0.163163 -1210.54)
(-0.686874 -0.00263257 -336.915)
(-0.203709 -0.134555 726.224)
(0.156058 -0.265995 2017.58)
(-0.154612 -0.10886 2706.1)
(-0.289981 -0.16576 3110.71)
(0.493631 -0.14821 1827.86)
(0.534392 -0.213115 378.773)
(0.080926 -0.485459 184.643)
(-0.186298 -0.834265 2161.58)
(-0.0881457 -1.01249 2838.33)
(0.0873743 -0.978551 2352.21)
(0.169692 -1.06374 1886.82)
(0.295474 -1.14793 1545.05)
(0.416421 -1.18325 1300.81)
(0.525863 -1.19397 1126.3)
(0.603195 -1.26946 1000.6)
(0.657608 -1.25897 909.688)
(0.71836 -1.27747 844.506)
(0.759751 -1.31294 798.635)
(0.742748 -1.34055 767.18)
(0.703477 -1.33039 745.906)
(0.631168 -1.40949 731.135)
(0.522913 -1.40548 720.285)
(0.412756 -1.38903 711.939)
(0.307128 -1.39713 705.479)
(0.159725 -1.41591 700.714)
(-0.00659984 -1.35911 696.98)
(-0.120129 -1.32332 694.172)
(-0.207249 -1.35784 692.066)
(-0.30417 -1.30849 690.412)
(-0.386276 -1.33415 688.909)
(-0.380763 -1.31924 687.498)
(-0.31449 -1.35067 686.359)
(-0.228883 -1.37551 685.568)
(-0.118753 -1.36574 685.014)
(0.0396252 -1.36941 684.623)
(0.220581 -1.38881 684.552)
(0.383121 -1.37679 684.694)
(0.518393 -1.35884 685.034)
(0.616205 -1.36552 685.661)
(0.661828 -1.34349 686.494)
(0.691973 -1.32361 687.437)
(0.63568 -1.32405 688.603)
(0.523775 -1.31637 689.46)
(0.446322 -1.33648 690.453)
(0.309412 -1.37328 691.606)
(0.113379 -1.42458 692.736)
(-0.0526666 -1.42048 693.813)
(-0.202503 -1.44836 695.196)
(-0.382932 -1.39443 696.512)
(-0.538822 -1.42295 697.83)
(-0.682515 -1.4051 698.986)
(-0.806548 -1.35161 699.823)
(-0.872578 -1.3451 701.414)
(-0.882876 -1.31631 704.985)
(-0.826144 -1.32285 711.543)
(-0.675248 -1.35096 721.259)
(-0.495034 -1.34775 733.729)
(-0.320208 -1.38675 747.215)
(-0.132473 -1.38266 759.864)
(0.0207559 -1.30856 769.771)
(0.133288 -1.22861 774.98)
(0.222777 -1.12032 776.668)
(0.260445 -1.1165 778.756)
(0.314071 -1.13622 779.027)
(0.383607 -1.11761 777.679)
(0.400623 -1.09695 776.634)
(0.361826 -1.12911 777.127)
(0.260638 -1.17398 778.94)
(0.149603 -1.22335 781.063)
(0.0163558 -1.24208 783.473)
(-0.146178 -1.28666 786.207)
(-0.268586 -1.29549 789.766)
(-0.363725 -1.31302 794.872)
(-0.462776 -1.3179 801.869)
(-0.568147 -1.31004 811.321)
(-0.636606 -1.2892 823.536)
(-0.666073 -1.26682 840.292)
(-0.707931 -1.18981 864.745)
(-0.71468 -1.16445 901.638)
(-0.666755 -1.1041 957.031)
(-0.586683 -1.06441 1038.48)
(-0.510033 -1.02287 1155.86)
(-0.446027 -0.987227 1323.3)
(-0.333567 -0.923587 1561.5)
(-0.197069 -0.881787 1898.64)
(-0.110808 -0.847483 2360.65)
(0.0672343 -0.851791 2844.34)
(0.161142 -0.686308 2166.81)
(-0.171095 -0.329642 190.532)
(-0.455811 -0.170593 383.722)
(-0.387348 -0.125852 1830.21)
(0.597182 -0.0710068 1172.97)
(0.714135 -0.047798 -934.166)
(0.534411 -0.131307 -1236.8)
(-0.216708 -0.785356 2550.6)
(-0.710765 -1.2518 4796.29)
(-0.956095 -1.53363 4968.54)
(-1.08642 -1.85898 4828.84)
(-1.0578 -2.20715 4684.29)
(-0.988358 -2.51491 4565.48)
(-0.894466 -2.84 4475.54)
(-0.75767 -3.10729 4411.62)
(-0.642017 -3.3056 4369.39)
(-0.537153 -3.44905 4344.12)
(-0.410678 -3.56969 4332.1)
(-0.360402 -3.63118 4328.11)
(-0.312469 -3.67055 4326.99)
(-0.266225 -3.69964 4324.93)
(-0.26561 -3.72523 4320)
(-0.268593 -3.74767 4313.82)
(-0.322679 -3.72988 4308.04)
(-0.380065 -3.75585 4303.29)
(-0.410799 -3.77198 4300.11)
(-0.513823 -3.75229 4297.96)
(-0.591519 -3.8045 4296.4)
(-0.628383 -3.85842 4295.24)
(-0.62468 -4.03979 4294.34)
(-0.614074 -4.3217 4293.26)
(-0.558975 -4.60427 4291.82)
(-0.432502 -4.87793 4291.09)
(-0.3095 -5.03697 4291.07)
(-0.136275 -5.10395 4291.16)
(0.0398457 -5.16073 4290.99)
(0.19688 -5.09074 4290.85)
(0.370098 -4.95203 4290.59)
(0.489969 -4.70712 4290.89)
(0.552906 -4.41141 4291.96)
(0.593555 -4.12505 4292.99)
(0.580639 -3.94354 4293.62)
(0.517761 -3.84688 4293.77)
(0.429331 -3.84882 4294.22)
(0.301043 -3.88118 4294.83)
(0.184634 -3.91034 4295.11)
(0.0898527 -3.84442 4295.89)
(-0.044301 -3.87748 4296.79)
(-0.193881 -3.89192 4297.49)
(-0.307587 -3.92536 4297.98)
(-0.395829 -3.91956 4296.91)
(-0.459556 -3.956 4292.46)
(-0.492378 -4.06753 4284.84)
(-0.517738 -4.26997 4276.75)
(-0.419257 -4.52834 4272.12)
(-0.224167 -4.74216 4274.03)
(-0.0271246 -4.94967 4282.28)
(0.198045 -5.10316 4295.72)
(0.446501 -5.16712 4313.34)
(0.673991 -5.19779 4331.67)
(0.780495 -5.16122 4344.32)
(0.640442 -5.0787 4345.8)
(0.479526 -4.69266 4345.19)
(0.55303 -4.38118 4336.75)
(0.666341 -4.06575 4327.35)
(0.661253 -3.67103 4324.06)
(0.641089 -3.39341 4327.31)
(0.58058 -3.26282 4332.8)
(0.48746 -3.18576 4336.62)
(0.384095 -3.18511 4339.39)
(0.286504 -3.20158 4342.03)
(0.217002 -3.18845 4345.55)
(0.147973 -3.18947 4350.4)
(0.128167 -3.17388 4357.33)
(0.103765 -3.16219 4365.77)
(0.11721 -3.09235 4373.42)
(0.199791 -3.09383 4377.26)
(0.233479 -3.04872 4378.81)
(0.263707 -2.96815 4383.88)
(0.350287 -2.81603 4399.77)
(0.459222 -2.62555 4433.67)
(0.586026 -2.45196 4491.15)
(0.715166 -2.20025 4576.97)
(0.776397 -1.90319 4693.25)
(0.830277 -1.60518 4836.25)
(0.788698 -1.31609 4975.01)
(0.599031 -1.06612 4802.14)
(0.177201 -0.651881 2557.25)
(-0.473964 -0.0930946 -1227.81)
(-0.641029 -0.0268249 -927.469)
(-0.489808 -0.0559135 1176.07)
(0.646165 -0.00747421 784.774)
(0.902626 0.0676751 -1750.78)
(0.875048 0.0741262 -2192.88)
(-0.0150999 -0.516817 2029.3)
(-0.868698 -1.01816 4896.31)
(-1.51036 -1.39993 5343.36)
(-1.88644 -1.89507 5326.87)
(-1.96841 -2.57252 5251.1)
(-1.96834 -3.31987 5165.01)
(-1.85121 -4.04552 5078.19)
(-1.64191 -4.84665 4999.64)
(-1.42463 -5.59191 4936.34)
(-1.16301 -6.25056 4894.4)
(-0.910467 -6.96085 4875.53)
(-0.787993 -7.57149 4872.54)
(-0.701157 -8.1152 4871.31)
(-0.59353 -8.66866 4860.78)
(-0.579544 -8.91603 4841.98)
(-0.541923 -9.23897 4824.33)
(-0.532198 -9.2512 4812.22)
(-0.5899 -8.92821 4804.72)
(-0.543426 -8.90109 4800.07)
(-0.560305 -9.17507 4797.31)
(-0.580821 -9.43574 4795.25)
(-0.693106 -9.51266 4794.86)
(-0.982805 -10.1591 4795.1)
(-1.10351 -10.5749 4792.13)
(-1.0001 -11.1706 4789.01)
(-0.772863 -11.2662 4787.98)
(-0.513898 -11.5708 4789.35)
(-0.288719 -11.8665 4790.37)
(-0.0392088 -11.6091 4790.39)
(0.245552 -11.6219 4789.62)
(0.538218 -11.3242 4788)
(0.810908 -11.0441 4787.73)
(0.927446 -10.9968 4789.98)
(0.843627 -10.5881 4793.18)
(0.612014 -10.1305 4793.42)
(0.374406 -9.39828 4792.65)
(0.270306 -9.43038 4792.56)
(0.246701 -9.51954 4792.6)
(0.208282 -9.28076 4793.43)
(0.105599 -9.35607 4794.12)
(0.0260889 -9.69155 4795.25)
(-0.0724936 -9.48175 4798.24)
(-0.159033 -9.51003 4802.39)
(-0.190878 -9.83716 4806.8)
(-0.38136 -10.0228 4804.35)
(-0.638022 -10.1329 4788.66)
(-0.761267 -9.95515 4764.4)
(-0.678362 -9.80023 4739.77)
(-0.474627 -10.3416 4723.25)
(-0.296417 -10.4298 4715.94)
(-0.0552382 -10.5648 4717)
(0.191198 -10.7101 4731.41)
(0.405904 -10.8079 4768.57)
(0.583877 -10.7287 4833.93)
(0.887845 -10.4714 4884.73)
(1.06724 -10.1007 4862.71)
(1.15359 -9.69845 4814.85)
(1.40444 -9.32728 4790.02)
(1.42034 -8.74707 4793.06)
(1.12353 -8.29903 4810.82)
(0.699149 -7.42663 4822.27)
(0.531438 -6.88043 4825.58)
(0.466077 -6.79234 4827.26)
(0.386023 -6.80622 4829.53)
(0.354194 -6.89393 4833.84)
(0.373147 -6.99357 4841.74)
(0.385214 -7.13136 4855.04)
(0.435402 -7.20937 4876.29)
(0.415152 -7.38365 4903.58)
(0.479688 -7.0797 4922.17)
(0.559775 -6.36691 4927.58)
(0.727473 -5.72626 4932.37)
(0.993382 -5.03047 4957.02)
(1.16933 -4.33318 5009.58)
(1.32505 -3.61577 5084.69)
(1.49532 -2.93138 5171.88)
(1.58746 -2.29713 5259.78)
(1.55234 -1.67556 5336.51)
(1.26268 -1.2332 5352.36)
(0.742864 -0.902268 4904.2)
(0.0109617 -0.450997 2037.52)
(-0.776382 0.0732375 -2182.37)
(-0.814028 0.0762399 -1743.24)
(-0.556942 0.00267555 788.17)
(0.774507 0.0339497 561.001)
(1.05556 0.100736 -2267.83)
(1.10329 0.148024 -2811.8)
(0.101423 -0.275769 1646.55)
(-0.981423 -0.641528 4783.92)
(-1.90063 -0.927349 5346.49)
(-2.62407 -1.4427 5380.93)
(-3.0886 -2.22652 5339.13)
(-3.16216 -3.15168 5280.41)
(-3.29431 -4.36258 5201.98)
(-3.2436 -5.80031 5097.8)
(-3.0141 -7.23124 4972.14)
(-2.92884 -9.54814 4841.33)
(-2.73889 -11.7938 4733.73)
(-2.51999 -14.4017 4667.18)
(-2.49139 -16.7646 4614.85)
(-2.24876 -17.7926 4541.4)
(-2.05495 -17.3559 4468.53)
(-1.54236 -17.4131 4419.86)
(-0.306879 -17.8412 4397.97)
(-0.112058 -17.733 4390.91)
(-0.901908 -17.7842 4385.42)
(-1.29295 -18.7485 4379.88)
(-0.711143 -19.4449 4375.43)
(-0.680502 -20.2386 4376.53)
(-0.841134 -21.5966 4378.91)
(-1.32227 -23.035 4369.93)
(-1.0972 -24.441 4362.39)
(-0.852821 -25.1503 4361.81)
(-1.3519 -26.0885 4363.48)
(-0.252383 -26.2937 4364.3)
(0.432946 -26.3279 4367.45)
(0.599125 -26.7057 4364.79)
(1.09192 -26.0105 4363.68)
(0.439663 -24.6233 4364.01)
(0.279797 -23.4306 4366.04)
(0.419646 -22.1152 4374.17)
(1.06131 -20.6138 4374.1)
(0.983728 -19.8989 4375.12)
(-0.0715192 -19.4897 4374.76)
(0.468075 -18.4664 4373.64)
(0.535336 -18.4503 4376.44)
(-0.355741 -18.5746 4376.05)
(0.185176 -18.3601 4376.09)
(0.750605 -19.1764 4384.86)
(-0.0619141 -18.992 4396.68)
(-0.136044 -20.0712 4421.69)
(0.250608 -20.9398 4453.33)
(0.760004 -20.5114 4466.13)
(0.85539 -20.402 4466.71)
(-0.728354 -19.1349 4484.8)
(-1.42014 -18.799 4530.43)
(-1.10855 -18.7382 4596.34)
(-1.62547 -19.1779 4650.99)
(-2.10281 -20.4326 4672.3)
(-2.32178 -22.9468 4680.97)
(-1.50703 -27.2405 4726.92)
(1.23969 -32.1678 4665.93)
(3.86066 -27.4867 4573)
(4.21238 -23.4197 4437.8)
(3.36077 -21.0655 4367.39)
(1.67424 -19.5693 4365.53)
(1.27444 -17.6554 4392.17)
(1.30734 -14.3726 4384.95)
(1.01683 -13.1382 4373.16)
(0.634985 -12.5062 4368.94)
(0.547344 -12.552 4369.39)
(0.51842 -12.7599 4374.24)
(0.455576 -13.0489 4385.13)
(0.601493 -13.5446 4406.62)
(0.635984 -13.8139 4451.64)
(1.27649 -13.7982 4537.32)
(2.42632 -13.7984 4644.83)
(2.61097 -11.9307 4725.96)
(2.50169 -9.57956 4805.27)
(2.61664 -7.35898 4925.54)
(2.69239 -5.63049 5066.3)
(2.70821 -4.14859 5191.82)
(2.63049 -2.89975 5286.43)
(2.48904 -1.97772 5353.08)
(2.2186 -1.32129 5396.4)
(1.62513 -0.843025 5360.03)
(0.828233 -0.58139 4794.45)
(-0.0908249 -0.251062 1655.86)
(-0.98105 0.1337 -2801.23)
(-0.895177 0.105005 -2260.69)
(-0.608586 0.0339217 564.119)
(0.735318 0.0513818 453.797)
(1.15821 0.0843449 -2526.22)
(1.25176 0.117152 -3114.3)
(0.179072 -0.0210266 1461.58)
(-0.985443 -0.159216 4713.53)
(-2.17987 -0.278309 5329.3)
(-3.20838 -0.538099 5399.33)
(-3.87022 -0.960617 5394.34)
(-4.48526 -1.56734 5384.31)
(-5.14703 -2.62731 5361.43)
(-5.43699 -4.02274 5301.29)
(-6.48873 -6.47276 5174.93)
(-7.50589 -9.80818 4946.52)
(-7.74735 -16.2676 4614.22)
(-9.12822 -27.7812 4237.87)
(-7.84306 -46.453 3914.37)
(-1.45661 -62.9867 3670.46)
(0.981227 -66.6695 3542.17)
(-1.06947 -65.3083 3495.19)
(-0.564545 -66.1032 3473.11)
(0.591852 -68.437 3469.55)
(-0.898452 -69.1852 3460.72)
(-2.13769 -69.7723 3451.79)
(-2.85923 -71.8251 3439.79)
(-5.86009 -72.7918 3422.48)
(-8.33031 -68.5338 3698.52)
(-3.00018 -48.3306 4176.81)
(0.984492 -37.5964 4532.66)
(1.53127 -31.1754 4751.92)
(0.842142 -28.179 4858.78)
(0.633418 -25.1123 4904.36)
(-1.91512 -25.8979 4915.08)
(-2.23972 -26.4018 4879.07)
(-0.0490624 -30.833 4800.43)
(-0.0442569 -35.4434 4636.02)
(0.59674 -43.4559 4335.86)
(4.50588 -60.3218 3904.94)
(4.71774 -73.4777 3465.88)
(1.01015 -74.4049 3411.64)
(-0.335689 -71.4285 3437.78)
(-0.519366 -69.2266 3457.8)
(-2.16077 -69.4525 3456.39)
(-0.940677 -69.8371 3459.02)
(-1.75441 -69.4159 3464.75)
(-1.26825 -70.7769 3462.3)
(-1.08373 -71.506 3476.5)
(-1.84102 -74.069 3493.63)
(3.27994 -69.8582 3607.97)
(4.50557 -51.5468 3880.68)
(4.40905 -33.571 4376.85)
(5.62328 -22.1553 4907.07)
(4.72801 -13.3553 5295.69)
(4.52306 -9.01597 5518.48)
(3.77152 -5.18959 5591.1)
(2.22867 -3.06886 5524.93)
(-0.120976 -1.29998 5328.37)
(-0.331112 0.410151 4844.17)
(1.37009 0.684976 4461.09)
(-1.0863 -4.14551 4819.47)
(-0.2214 -8.18329 5303.89)
(-0.889787 -14.7231 5238.59)
(0.993237 -23.4572 4752.13)
(4.74516 -47.192 4034.35)
(5.05886 -61.8997 3455.56)
(2.07912 -60.259 3413.34)
(1.14516 -60.2971 3436.32)
(0.0687642 -59.241 3450.73)
(0.61167 -59.9652 3459.38)
(1.15259 -61.9129 3468)
(1.82189 -62.4706 3482.95)
(2.02425 -61.4238 3506.53)
(0.943899 -68.2711 3586.18)
(6.01984 -49.9408 3861.12)
(8.31812 -25.1418 4262.69)
(7.19116 -13.0304 4707.95)
(6.28664 -7.38212 5059.73)
(5.29687 -4.48365 5267.98)
(4.69718 -2.82455 5369.76)
(4.01178 -1.70249 5410.39)
(3.34403 -1.00903 5423.18)
(2.75351 -0.543649 5423.92)
(1.88115 -0.318881 5347.71)
(0.853512 -0.178548 4726.11)
(-0.175609 -0.0410109 1470.83)
(-1.09844 0.120531 -3105.79)
(-0.980295 0.0934465 -2520.8)
(-0.708442 0.0512461 456.189)
(0.813901 0.062267 444.834)
(1.12596 0.0478259 -2547.24)
(1.28993 0.0501144 -3133.26)
(0.211029 0.189561 1452.12)
(-0.996823 0.304931 4709.89)
(-2.1652 0.405808 5326.88)
(-3.25891 0.539188 5399.49)
(-4.15792 0.718489 5402.56)
(-4.96998 0.8396 5411.07)
(-6.00435 0.906968 5422.14)
(-7.57978 0.766639 5411.28)
(-9.58547 0.362216 5337.15)
(-13.915 -1.05002 5152.49)
(-22.2067 -6.75319 4764.05)
(-34.5378 -15.9831 4035.46)
(-47.4796 -46.8353 2988.61)
(-34.5195 -53.3042 2194.62)
(-7.45776 -40.9988 2011.85)
(-1.17447 -41.7923 2107.76)
(-6.09101 -33.7004 2118.77)
(-3.99864 -37.9233 2083.17)
(1.31883 -38.1826 2082.16)
(2.67836 -34.5469 2127.07)
(5.51655 -29.2239 2356.42)
(7.38728 2.49488 2778.43)
(45.0652 -4.28304 3447.17)
(27.0534 3.07376 4177.09)
(15.2691 10.8494 4645.27)
(6.39937 13.3184 4854.57)
(1.78703 15.67 4905.74)
(1.38141 15.4132 4922.6)
(-0.091294 14.2468 4929.68)
(-3.15146 16.0924 4919.02)
(-5.85806 15.6678 4878.96)
(-11.7966 10.4649 4752.38)
(-23.7902 5.75923 4395.04)
(-39.1298 -14.3294 3749.16)
(-28.2098 16.2813 3025.98)
(-3.77777 -14.9588 2534.54)
(-2.72412 -34.1847 2177.61)
(0.544187 -36.8283 2110.88)
(-4.03306 -33.2819 2094.5)
(-4.25841 -33.3867 2081.76)
(-2.70272 -38.6912 2092.18)
(-0.48782 -35.4449 2092.13)
(-3.8958 -45.8474 2004.2)
(7.7621 -50.0123 1931.87)
(29.9492 -39.253 2515.77)
(35.0404 -15.0319 3614.09)
(30.7779 1.66805 4454.27)
(18.9262 9.03786 4908.88)
(10.3235 12.527 5129.8)
(6.13343 14.7629 5214.14)
(3.69445 16.6226 5178.65)
(1.50471 18.6511 5094.73)
(-0.0925468 21.4129 5050.72)
(-1.1253 25.3988 5123.48)
(-1.15467 30.1528 5308.42)
(-1.09411 25.713 5299.23)
(-4.13116 21.5599 5293.75)
(-10.2801 18.1789 5176.08)
(-36.6569 15.1941 4626.36)
(-34.2803 -12.0454 3753.98)
(-38.9272 4.15413 2642.31)
(-9.31043 -36.5584 1840.93)
(-14.7286 -36.8414 1791.61)
(-12.4016 -37.8374 1810.39)
(-14.4517 -35.995 1829.23)
(-12.6828 -35.5282 1870.94)
(-6.26377 -34.0353 1918.4)
(-8.17899 -36.804 1775.95)
(17.0547 -32.0715 1743.36)
(55.6551 -39.5532 2669.14)
(37.273 -8.66757 4038.2)
(20.7318 -3.82717 4864.14)
(12.0267 -0.508913 5263.4)
(7.83117 0.240395 5420.6)
(5.7937 0.531398 5466.27)
(4.61199 0.521806 5461.55)
(3.78925 0.50067 5444.87)
(2.94968 0.375723 5430.1)
(1.89478 0.292286 5347.02)
(0.865545 0.23199 4722.66)
(-0.189616 0.145475 1459.88)
(-1.11577 0.0746762 -3128.38)
(-1.03503 0.0581528 -2544.61)
(-0.716005 0.0610058 446.052)
(0.770012 0.0745148 528.732)
(1.0349 0.015324 -2342.03)
(1.15237 0.0594894 -2874.87)
(0.149747 0.418398 1616.45)
(-0.896911 0.785108 4773.68)
(-1.94889 1.06184 5338.99)
(-2.861 1.50508 5377.04)
(-3.57694 2.13788 5352.31)
(-4.21963 2.82645 5336.16)
(-5.06656 3.68674 5335.41)
(-5.90903 4.70286 5332.27)
(-8.26601 6.24737 5265.61)
(-14.1622 8.15331 5057.07)
(-23.3966 10.663 4637.34)
(-53.8316 13.1458 3779.24)
(-48.481 12.0056 2424.89)
(4.83751 -9.96567 1060.15)
(9.44749 -16.7122 620.876)
(7.4111 -11.8183 761.819)
(7.18001 -7.98138 834.443)
(4.96777 -6.35194 790.314)
(11.4327 -7.25729 827.241)
(26.9312 5.81318 1201.19)
(34.9429 23.9853 2108.23)
(38.9083 57.4928 3071.2)
(19.69 65.9985 3759.17)
(10.2203 51.6916 4104.31)
(7.49469 43.7496 4257.42)
(5.00849 38.3596 4295.83)
(2.3733 36.3967 4302.06)
(0.0757384 34.9137 4301.62)
(-1.07572 34.735 4296.94)
(-1.75627 35.2152 4301.62)
(-4.28349 37.7148 4301.49)
(-7.33402 41.15 4275.97)
(-9.54008 48.9017 4175.83)
(-14.9098 60.5879 3897.48)
(-31.2069 63.631 3405.3)
(-38.4411 38.6386 2583.01)
(-39.7625 19.5418 1639.33)
(-12.4712 -5.59209 916.855)
(-9.86562 -7.94301 796.258)
(-13.1857 -7.86812 788.81)
(-11.5704 -4.53002 797.733)
(-11.2264 -8.10855 762.376)
(-12.4385 -9.96285 609.695)
(0.591662 8.07153 842.406)
(36.0859 32.305 1990.87)
(54.9434 40.8878 3255.15)
(25.1541 31.7132 4162.72)
(13.7516 23.4849 4572.8)
(8.16857 18.7533 4678.9)
(5.62691 16.6304 4836.05)
(4.01241 15.0914 4725.89)
(2.78161 14.3103 4593.04)
(1.72745 13.7109 4544.96)
(0.667017 13.4736 4559.2)
(-0.269519 13.5463 4595.31)
(-1.50695 14.4106 4654.78)
(-3.45799 16.0967 4795.93)
(-6.88483 19.8427 4826.23)
(-11.6354 27.3196 4231.69)
(-29.0384 48.3142 3420.15)
(-43.6729 48.075 2527.99)
(-43.2455 24.7906 1289.69)
(-7.43557 -1.4837 391.747)
(-6.43723 -3.75429 367.091)
(-4.79286 -2.18253 394.558)
(-4.75225 0.471905 445.943)
(0.120815 -3.61651 451.075)
(-4.15661 -9.90677 284.07)
(-4.31297 15.453 603.699)
(45.4643 8.47012 2182.43)
(53.0661 16.7084 3797.57)
(17.5274 10.1868 4741.3)
(10.4484 6.30666 5169.11)
(6.56412 4.46987 5354.96)
(4.94769 3.25888 5410.7)
(3.94692 2.37746 5406.22)
(3.2188 1.76474 5400.57)
(2.55446 1.21215 5406.39)
(1.73618 0.891503 5356.13)
(0.781062 0.623977 4783.62)
(-0.158681 0.351631 1621.11)
(-1.0214 0.030584 -2875.09)
(-0.935155 0.0233832 -2342.75)
(-0.642146 0.0752997 528.694)
(0.734732 0.107959 709.682)
(0.93409 0.0132585 -1920.92)
(0.92565 0.04342 -2329.11)
(0.0163073 0.629866 1969.17)
(-0.808406 1.1515 4871.62)
(-1.51227 1.46888 5314.62)
(-2.1151 2.00998 5290.76)
(-2.54395 2.69204 5216.39)
(-2.96123 3.39795 5154.29)
(-3.54293 4.19112 5140.25)
(-4.25745 5.10499 5193.37)
(-5.19458 6.22134 5204.23)
(-7.7359 8.66471 4916.41)
(-12.4207 14.1565 4614.76)
(-21.8448 24.8444 3940.59)
(-58.0483 51.9841 2807.21)
(-46.8015 52.0817 1522.63)
(-4.05392 21.5774 506.508)
(8.31776 -0.578991 351.346)
(2.12712 0.773641 490.101)
(0.897621 7.25043 585.641)
(23.6478 12.2193 1097.53)
(33.6634 50.585 2063.57)
(42.5698 62.9051 2991.1)
(15.175 36.186 3788.79)
(8.01972 22.706 4720.76)
(4.18417 18.0215 4871.69)
(2.31715 15.9977 4761.23)
(1.24153 14.8444 4689.69)
(0.5867 14.3196 4673.48)
(0.0799181 14.1506 4674.8)
(-0.36215 14.3706 4675.27)
(-0.83174 14.4171 4672.93)
(-1.43699 14.5262 4682.06)
(-2.19276 15.4529 4735.23)
(-3.95435 17.0249 4844.35)
(-6.4658 20.144 4801.8)
(-10.8724 28.0202 4175.45)
(-24.4275 49.6911 3430.68)
(-44.5061 62.0213 2649.89)
(-32.4906 28.1951 1572.24)
(-13.6614 4.25335 709.203)
(-7.78538 4.66209 569.384)
(-7.56828 9.22015 512.04)
(-4.50954 0.872439 391.558)
(4.44326 16.1027 525.916)
(43.7806 59.7126 1498.61)
(55.7525 63.1958 2754.64)
(21.0593 30.8022 3778.08)
(11.3508 18.0928 4425.76)
(6.32397 12.1902 4778.3)
(4.03239 9.42798 4442.81)
(3.1689 8.25951 4656.21)
(2.48635 7.62632 4174.48)
(1.88283 7.21125 3971.49)
(1.33557 6.86387 3962.58)
(0.79874 6.68305 3973.64)
(0.0731719 6.78929 3962.52)
(-0.764635 6.92746 4002.66)
(-1.50488 7.4319 4331.36)
(-2.60927 8.60368 5024.68)
(-5.64225 11.1681 4474.12)
(-10.439 15.619 4062.23)
(-28.0926 30.9378 3426.12)
(-49.1924 54.6665 2593.12)
(-52.0422 23.2367 1343)
(-5.62749 10.8439 499.877)
(-5.06147 11.8032 447.083)
(-3.93091 11.1607 373.543)
(-2.02108 0.235248 228.304)
(2.59052 35.8552 521.099)
(43.1938 52.6532 1643.92)
(51.5724 55.9809 2940.44)
(15.2361 19.3622 4080.74)
(8.68557 10.7356 4722.08)
(5.58065 6.56533 4994.57)
(4.27957 4.87234 5271.51)
(3.40971 3.6601 5275.85)
(2.83645 2.88979 5236.47)
(2.36636 2.25395 5253.47)
(1.95475 1.71702 5306.65)
(1.35566 1.25069 5322.13)
(0.690918 0.97359 4875.39)
(-0.0521887 0.527369 1969.21)
(-0.835739 0.0466985 -2334.35)
(-0.837683 0.0192253 -1924.7)
(-0.608925 0.0990381 708.339)
(0.618147 0.156644 1007.25)
(0.771266 0.0681748 -1309.76)
(0.542375 0.108334 -1550.81)
(-0.159229 0.922009 2391.46)
(-0.624372 1.43898 4679.66)
(-0.944724 1.73713 4831.7)
(-1.1598 2.10003 4665.31)
(-1.40876 2.57003 4486.37)
(-1.74039 3.01382 4327.81)
(-2.19352 3.40317 4243.73)
(-2.71949 3.55408 4394.57)
(-3.37057 3.86561 4850.12)
(-4.06941 4.59418 4609.94)
(-5.83521 7.64947 4884.39)
(-11.0456 12.5207 4410.19)
(-20.5377 22.9807 3805.98)
(-47.8682 51.5398 2856.36)
(-47.0335 46.9733 1664.82)
(-0.644819 17.9456 696.478)
(6.44828 -2.36948 453.421)
(19.8212 9.13189 1144.4)
(38.9573 48.0222 2200.73)
(51.7569 49.2251 3072.95)
(18.0972 22.0035 3641.86)
(8.66204 13.9943 3885.65)
(3.52885 10.594 5193.65)
(1.57459 8.42804 4450.6)
(0.763538 7.55436 4014.06)
(0.32724 7.10519 3952.2)
(0.0739615 6.82674 3994.01)
(-0.0824648 6.7233 4029.21)
(-0.153579 6.70055 4034.71)
(-0.285762 6.78528 4007.96)
(-0.522827 6.98658 3963.78)
(-0.959556 7.30931 3982.56)
(-1.6863 7.71644 4305.48)
(-3.08004 9.21728 5006.69)
(-5.88742 11.2914 4449.76)
(-12.1316 16.3968 4053.24)
(-26.408 30.296 3485.65)
(-54.6698 58.9352 2732.6)
(-36.4191 10.556 1642.64)
(-1.75157 1.90912 668.598)
(-5.83331 -3.37602 408.343)
(0.587111 -1.06743 452.181)
(41.1093 43.6922 1439.34)
(53.2853 52.6665 2803.52)
(19.7887 21.3152 3767.46)
(10.2124 12.2533 4311.5)
(4.79116 7.39189 4666.25)
(2.82578 5.21482 4959.91)
(1.51971 3.80113 2324.1)
(0.684673 2.93038 -391.328)
(0.489946 2.65923 -867.408)
(0.302399 2.67113 -553.754)
(0.156477 2.49634 -239.071)
(0.0862708 2.34982 -167.402)
(-0.00511622 2.29395 -327.875)
(-0.181795 2.42362 -758.114)
(-0.38283 2.70385 -1064.27)
(-0.856912 3.2397 -456.119)
(-2.04801 4.89917 2821.98)
(-5.63011 7.59014 3965.08)
(-11.8612 11.8953 4134.93)
(-37.3121 24.4593 3542.98)
(-39.2788 58.7025 2515.79)
(-33.6589 0.506702 1241.85)
(-0.632901 3.35634 404.512)
(-5.18883 -3.43116 177.592)
(0.0690561 33.673 592.333)
(50.9041 42.5634 1808.32)
(35.6334 47.8252 3130.56)
(13.0994 15.4534 4063.99)
(7.40057 9.01783 4635.63)
(4.35167 5.47743 4956.39)
(3.26469 3.65221 4643.28)
(2.71078 2.97019 4880.9)
(2.17302 2.69053 4483.25)
(1.7889 2.53688 4368.31)
(1.42237 2.18177 4474.47)
(1.13561 1.82316 4651.33)
(0.862031 1.45275 4823.68)
(0.523105 1.24253 4675.82)
(0.0978853 0.767506 2387.23)
(-0.506008 0.133587 -1559.29)
(-0.682217 0.0820064 -1315.43)
(-0.53146 0.134683 1005.17)
(0.483665 0.186225 1469.01)
(0.58235 0.14357 -471.533)
(0.181203 0.323496 -604.944)
(-0.0746766 0.904783 1638.25)
(0.0559753 1.13819 2341.98)
(0.279733 1.17617 1820.94)
(0.366208 1.31688 1304.27)
(0.445806 1.48723 864.617)
(0.437744 1.69775 422.255)
(0.157536 1.77323 -124.792)
(-0.217611 1.53426 -571.06)
(-0.528877 1.31932 -219.189)
(-1.51383 1.85136 2459.14)
(-2.73201 3.31871 5081.39)
(-4.42243 5.2384 4384.24)
(-10.2724 10.6193 4304.85)
(-20.0886 19.0569 3875.14)
(-43.1869 50.4993 3037.88)
(-60.0934 48.2183 1952.68)
(9.65202 24.0191 1582.4)
(49.7454 51.7625 2321.71)
(53.2341 49.5896 3280.38)
(21.2122 17.8469 4026.03)
(9.72673 10.2746 3895.59)
(3.34215 5.36582 1109.58)
(1.05042 3.34016 -787.471)
(0.34243 2.47766 -1258.73)
(0.163865 2.27357 -1039.11)
(-0.0245374 2.24564 -495.152)
(-0.0291105 2.18682 -185.717)
(0.0748069 2.11111 -51.43)
(0.177677 2.14307 -31.5047)
(0.278564 2.15936 -118.384)
(0.304734 2.22111 -359.577)
(0.103512 2.20484 -838.467)
(-0.210952 2.18411 -1177.64)
(-0.695593 2.36586 -577.437)
(-1.85216 4.17805 2746.93)
(-5.27326 6.85856 3921.3)
(-13.0309 12.799 4137.6)
(-34.1806 24.8961 3634.4)
(-59.3124 59.8808 2736.52)
(-43.8842 14.3496 1591.25)
(-6.81119 7.26274 637.118)
(29.1906 34.498 1353.69)
(64.7484 50.6328 2710.79)
(23.631 17.7259 3826.03)
(10.2045 9.99071 4307.84)
(3.98778 4.66145 4172.86)
(1.5219 2.72465 3501.23)
(0.928568 1.4898 1474.9)
(0.244454 1.08474 -1475.18)
(-2.53884 -0.453651 -9301.05)
(-2.56173 -0.64029 -9655.75)
(-1.37252 -0.358134 -6862.33)
(-1.03213 -0.333213 -6136.51)
(-0.623669 -0.27114 -6027.94)
(-0.288107 -0.241776 -6301.78)
(-0.0675504 -0.250211 -7374.21)
(-0.0159488 -0.5458 -11008.5)
(-0.2814 -0.448504 -10877.4)
(-1.203 1.5753 -1416.88)
(-2.87101 2.94925 3034.46)
(-7.56012 5.86247 4617.63)
(-15.4013 10.265 4458.02)
(-63.6913 32.9843 3544.41)
(-29.4079 30.3862 2170.31)
(-25.2464 8.326 801.117)
(5.96931 37.5829 804.951)
(57.2852 43.8989 1927.68)
(33.284 39.0658 3224.99)
(12.0775 12.7974 4099.82)
(6.55849 7.08511 4539.65)
(3.23374 3.79041 4750.42)
(2.23161 2.504 4983.05)
(1.21036 1.46842 2510.26)
(0.365175 1.0766 4.65174)
(0.153759 1.23222 -314.553)
(-0.125763 1.44008 143.15)
(-0.315327 1.29496 721.036)
(-0.291223 1.1597 1239.07)
(-0.252247 1.02234 1792.04)
(-0.0855738 0.959269 2329.21)
(0.0419671 0.781187 1630.72)
(-0.155191 0.279928 -613.282)
(-0.57581 0.129497 -476.992)
(-0.433718 0.159078 1466.88)
(0.369506 0.207182 2024.81)
(0.393775 0.144639 913.675)
(-0.151176 0.43038 359.166)
(0.270014 0.353761 -865.671)
(1.02901 0.136844 -2040.2)
(1.54477 -0.0300589 -2972.24)
(1.97947 -0.0698782 -3749.92)
(2.35525 -0.0876169 -4405.11)
(2.72577 -0.116676 -5079.84)
(2.89748 -0.20262 -6194.91)
(4.04912 -0.45607 -9268.98)