/*--------------------------------*- C++ -*----------------------------------*\
  =========                 |
  \\      /  F ield         | OpenFOAM: The Open Source CFD Toolbox
   \\    /   O peration     | Website:  https://openfoam.org
    \\  /    A nd           | Version:  7
     \\/     M anipulation  |
\*---------------------------------------------------------------------------*/
FoamFile
{
    version     2.0;
    format      ascii;
    class       volVectorField;
    location    "1000";
    object      U;
}
// * * * * * * * * * * * * * * * * * * * * * * * * * * * * * * * * * * * * * //

dimensions      [0 1 -1 0 0 0 0];

internalField   nonuniform List<vector> 
46980
(
(-9.17489e-09 -9.06914e-09 8.95025e-05)
(-3.24788e-08 -2.26035e-08 0.000182579)
(-5.49764e-08 -3.51538e-08 0.000251795)
(-7.29439e-08 -4.7234e-08 0.000316084)
(-8.87841e-08 -5.5743e-08 0.000374651)
(-1.04782e-07 -6.244e-08 0.00042099)
(-1.19999e-07 -6.80626e-08 0.000455032)
(-1.32899e-07 -7.30555e-08 0.000479495)
(-1.42311e-07 -7.7576e-08 0.000497118)
(-1.47571e-07 -8.15665e-08 0.000509951)
(-1.48523e-07 -8.4866e-08 0.000519394)
(-1.45481e-07 -8.73172e-08 0.000526389)
(-1.39161e-07 -8.88432e-08 0.000531576)
(-1.30558e-07 -8.95132e-08 0.000535404)
(-1.20729e-07 -8.95614e-08 0.000538203)
(-1.10596e-07 -8.93353e-08 0.000540219)
(-1.00732e-07 -8.92427e-08 0.000541646)
(-9.13745e-08 -8.9602e-08 0.000542636)
(-8.26227e-08 -9.06163e-08 0.000543308)
(-7.45461e-08 -9.2414e-08 0.000543758)
(-6.71837e-08 -9.50534e-08 0.000544055)
(-6.05367e-08 -9.85349e-08 0.000544249)
(-5.45603e-08 -1.02798e-07 0.000544375)
(-4.91837e-08 -1.07711e-07 0.000544457)
(-4.43492e-08 -1.13071e-07 0.00054451)
(-4.0036e-08 -1.18597e-07 0.000544544)
(-3.6065e-08 -1.24066e-07 0.000544564)
(-3.22521e-08 -1.29054e-07 0.000544577)
(-2.86706e-08 -1.33179e-07 0.000544584)
(-2.54298e-08 -1.36154e-07 0.000544588)
(-2.24908e-08 -1.37807e-07 0.000544589)
(-1.96247e-08 -1.38052e-07 0.000544588)
(-1.65239e-08 -1.36862e-07 0.000544585)
(-1.29919e-08 -1.3427e-07 0.00054458)
(-9.07527e-09 -1.304e-07 0.000544573)
(-5.05085e-09 -1.2551e-07 0.000544565)
(-1.24642e-09 -1.19985e-07 0.000544554)
(2.26071e-09 -1.14321e-07 0.000544539)
(5.56646e-09 -1.08871e-07 0.000544517)
(8.66542e-09 -1.03956e-07 0.000544488)
(1.15478e-08 -9.98866e-08 0.000544448)
(1.4265e-08 -9.68834e-08 0.000544395)
(1.68611e-08 -9.50989e-08 0.000544322)
(1.93571e-08 -9.46292e-08 0.000544224)
(2.17656e-08 -9.55245e-08 0.000544092)
(2.41524e-08 -9.77856e-08 0.000543913)
(2.67107e-08 -1.01342e-07 0.000543679)
(2.97827e-08 -1.05992e-07 0.00054338)
(3.37367e-08 -1.11351e-07 0.000543014)
(3.8635e-08 -1.16796e-07 0.000542588)
(4.40335e-08 -1.21648e-07 0.000542117)
(4.91078e-08 -1.25303e-07 0.000541625)
(5.29622e-08 -1.27384e-07 0.000541136)
(5.49571e-08 -1.27773e-07 0.000540677)
(5.4884e-08 -1.26568e-07 0.000540269)
(5.29334e-08 -1.24024e-07 0.000539923)
(4.96348e-08 -1.20493e-07 0.000539646)
(4.58136e-08 -1.16324e-07 0.000539437)
(4.28355e-08 -1.11877e-07 0.000539292)
(4.19937e-08 -1.07021e-07 0.000539201)
(4.34772e-08 -1.01546e-07 0.000539153)
(4.64869e-08 -9.54844e-08 0.000539137)
(4.98381e-08 -8.91102e-08 0.000539139)
(5.28093e-08 -8.3029e-08 0.000539144)
(5.54476e-08 -7.766e-08 0.000539134)
(5.80556e-08 -7.32068e-08 0.000539092)
(6.093e-08 -6.97559e-08 0.000538995)
(6.43181e-08 -6.72923e-08 0.000538818)
(6.83642e-08 -6.57597e-08 0.000538518)
(7.31612e-08 -6.50732e-08 0.000538039)
(7.87399e-08 -6.51085e-08 0.000537294)
(8.50332e-08 -6.56851e-08 0.000536168)
(9.19101e-08 -6.66166e-08 0.000534506)
(9.91374e-08 -6.7621e-08 0.000532106)
(1.0616e-07 -6.83554e-08 0.000528706)
(1.12135e-07 -6.85314e-08 0.000523959)
(1.16107e-07 -6.7935e-08 0.000517395)
(1.17185e-07 -6.64936e-08 0.000508354)
(1.14783e-07 -6.42476e-08 0.000495881)
(1.08751e-07 -6.12858e-08 0.000478566)
(9.94613e-08 -5.76546e-08 0.000454358)
(8.78089e-08 -5.32414e-08 0.000420524)
(7.5073e-08 -4.77113e-08 0.000374353)
(6.20839e-08 -4.04837e-08 0.000315918)
(4.69496e-08 -3.0126e-08 0.000251721)
(2.77583e-08 -1.937e-08 0.000182553)
(7.84344e-09 -7.76395e-09 8.95004e-05)
(-2.5293e-08 -2.82081e-08 0.000178652)
(-8.20273e-08 -6.42934e-08 0.000373062)
(-1.42936e-07 -1.06319e-07 0.000553792)
(-2.17289e-07 -1.57208e-07 0.000808642)
(-2.94706e-07 -1.96896e-07 0.00106142)
(-3.73464e-07 -2.28832e-07 0.00126713)
(-4.46474e-07 -2.56828e-07 0.00142416)
(-5.08217e-07 -2.83017e-07 0.00154203)
(-5.55084e-07 -3.07757e-07 0.00163048)
(-5.85008e-07 -3.30373e-07 0.00169714)
(-5.97393e-07 -3.49747e-07 0.00174754)
(-5.93082e-07 -3.64797e-07 0.00178562)
(-5.74278e-07 -3.74856e-07 0.00181426)
(-5.44267e-07 -3.80041e-07 0.00183556)
(-5.06795e-07 -3.81405e-07 0.00185118)
(-4.65409e-07 -3.80696e-07 0.0018624)
(-4.22622e-07 -3.80061e-07 0.00187031)
(-3.79771e-07 -3.81139e-07 0.00187576)
(-3.37753e-07 -3.84873e-07 0.00187944)
(-2.9739e-07 -3.91844e-07 0.00188191)
(-2.59373e-07 -4.02329e-07 0.00188356)
(-2.24253e-07 -4.16367e-07 0.00188467)
(-1.92437e-07 -4.33727e-07 0.00188543)
(-1.643e-07 -4.53836e-07 0.00188597)
(-1.40318e-07 -4.75798e-07 0.00188635)
(-1.21182e-07 -4.98438e-07 0.00188664)
(-1.06715e-07 -5.2103e-07 0.00188686)
(-9.6302e-08 -5.41623e-07 0.00188703)
(-8.99755e-08 -5.58486e-07 0.00188715)
(-8.75298e-08 -5.70498e-07 0.00188723)
(-8.79543e-08 -5.77149e-07 0.00188728)
(-8.93907e-08 -5.78251e-07 0.00188728)
(-8.96319e-08 -5.73679e-07 0.00188725)
(-8.68671e-08 -5.63361e-07 0.00188719)
(-8.02572e-08 -5.47531e-07 0.0018871)
(-7.00079e-08 -5.27097e-07 0.00188697)
(-5.68765e-08 -5.0375e-07 0.00188682)
(-4.10409e-08 -4.79826e-07 0.00188665)
(-2.24542e-08 -4.56764e-07 0.00188643)
(-1.83676e-09 -4.35851e-07 0.00188619)
(2.00455e-08 -4.18482e-07 0.0018859)
(4.27558e-08 -4.0563e-07 0.00188555)
(6.59003e-08 -3.97937e-07 0.00188511)
(8.90279e-08 -3.95795e-07 0.00188455)
(1.11627e-07 -3.99435e-07 0.00188381)
(1.33277e-07 -4.08948e-07 0.00188282)
(1.5389e-07 -4.24172e-07 0.00188151)
(1.73804e-07 -4.44331e-07 0.0018798)
(1.93442e-07 -4.67636e-07 0.00187765)
(2.12237e-07 -4.90982e-07 0.00187509)
(2.28201e-07 -5.11058e-07 0.00187219)
(2.38662e-07 -5.2513e-07 0.00186909)
(2.41354e-07 -5.31812e-07 0.00186597)
(2.35416e-07 -5.31052e-07 0.00186303)
(2.21678e-07 -5.23755e-07 0.00186042)
(2.02237e-07 -5.11378e-07 0.00185822)
(1.79898e-07 -4.95696e-07 0.00185648)
(1.57793e-07 -4.78551e-07 0.00185517)
(1.40619e-07 -4.618e-07 0.00185426)
(1.32926e-07 -4.4419e-07 0.00185369)
(1.3558e-07 -4.23673e-07 0.00185337)
(1.46186e-07 -3.99641e-07 0.00185324)
(1.60727e-07 -3.73199e-07 0.00185322)
(1.76504e-07 -3.47604e-07 0.0018532)
(1.93306e-07 -3.25106e-07 0.0018531)
(2.11502e-07 -3.06666e-07 0.00185282)
(2.31417e-07 -2.92636e-07 0.00185227)
(2.53324e-07 -2.82889e-07 0.00185129)
(2.77292e-07 -2.77132e-07 0.00184969)
(3.03304e-07 -2.74969e-07 0.00184714)
(3.31176e-07 -2.75799e-07 0.00184317)
(3.60302e-07 -2.78751e-07 0.00183713)
(3.89865e-07 -2.82964e-07 0.00182814)
(4.18714e-07 -2.86978e-07 0.00181508)
(4.44482e-07 -2.88992e-07 0.00179655)
(4.63892e-07 -2.87552e-07 0.00177076)
(4.7349e-07 -2.81703e-07 0.00173546)
(4.7025e-07 -2.71312e-07 0.00168763)
(4.52291e-07 -2.56907e-07 0.00162325)
(4.19185e-07 -2.39311e-07 0.00153671)
(3.72126e-07 -2.19187e-07 0.00142039)
(3.13965e-07 -1.96419e-07 0.0012646)
(2.49462e-07 -1.69441e-07 0.00105985)
(1.84897e-07 -1.35273e-07 0.000807821)
(1.21978e-07 -9.13677e-08 0.000553471)
(7.00406e-08 -5.52574e-08 0.000372947)
(2.16115e-08 -2.42238e-08 0.000178633)
(-3.9129e-08 -3.97275e-08 0.000234761)
(-1.33213e-07 -9.28718e-08 0.000516702)
(-2.50466e-07 -1.69647e-07 0.000869389)
(-4.90345e-07 -3.13629e-07 0.00168947)
(-7.47922e-07 -4.22578e-07 0.00246259)
(-1.01362e-06 -5.14001e-07 0.00311446)
(-1.26264e-06 -6.00907e-07 0.00364553)
(-1.4793e-06 -6.87644e-07 0.00407053)
(-1.65247e-06 -7.73358e-07 0.00440728)
(-1.77471e-06 -8.54453e-07 0.00467234)
(-1.84246e-06 -9.26159e-07 0.00487955)
(-1.85612e-06 -9.83884e-07 0.00504001)
(-1.82019e-06 -1.02442e-06 0.00516261)
(-1.74286e-06 -1.0473e-06 0.0052546)
(-1.63461e-06 -1.05552e-06 0.00532211)
(-1.50647e-06 -1.05483e-06 0.00537042)
(-1.36725e-06 -1.05291e-06 0.0054041)
(-1.22228e-06 -1.0555e-06 0.00542704)
(-1.07575e-06 -1.0656e-06 0.00544241)
(-9.31622e-07 -1.08498e-06 0.00545264)
(-7.93348e-07 -1.11445e-06 0.0054595)
(-6.63889e-07 -1.15413e-06 0.00546417)
(-5.4581e-07 -1.20323e-06 0.00546746)
(-4.41751e-07 -1.25978e-06 0.00546987)
(-3.54885e-07 -1.32078e-06 0.00547171)
(-2.89574e-07 -1.38268e-06 0.00547315)
(-2.46777e-07 -1.44469e-06 0.00547429)
(-2.24857e-07 -1.50082e-06 0.00547519)
(-2.2338e-07 -1.546e-06 0.00547589)
(-2.40111e-07 -1.57759e-06 0.00547638)
(-2.69779e-07 -1.595e-06 0.00547665)
(-3.04322e-07 -1.59834e-06 0.00547671)
(-3.34543e-07 -1.58724e-06 0.00547655)
(-3.52349e-07 -1.56079e-06 0.00547619)
(-3.52617e-07 -1.51862e-06 0.00547565)
(-3.33758e-07 -1.4625e-06 0.00547495)
(-2.96881e-07 -1.39716e-06 0.0054741)
(-2.42253e-07 -1.33e-06 0.00547312)
(-1.70679e-07 -1.26445e-06 0.00547199)
(-8.6492e-08 -1.20391e-06 0.00547073)
(6.04348e-09 -1.15302e-06 0.00546931)
(1.04176e-07 -1.11503e-06 0.00546767)
(2.05491e-07 -1.09202e-06 0.00546569)
(3.07503e-07 -1.08515e-06 0.00546323)
(4.0747e-07 -1.09515e-06 0.00546002)
(5.02629e-07 -1.12245e-06 0.00545573)
(5.908e-07 -1.16681e-06 0.00544993)
(6.70626e-07 -1.226e-06 0.00544215)
(7.40841e-07 -1.29413e-06 0.00543208)
(7.97405e-07 -1.36066e-06 0.00541967)
(8.3332e-07 -1.415e-06 0.00540525)
(8.41797e-07 -1.44926e-06 0.00538954)
(8.19174e-07 -1.46068e-06 0.00537358)
(7.67118e-07 -1.45088e-06 0.00535847)
(6.92452e-07 -1.42404e-06 0.00534518)
(6.05124e-07 -1.38513e-06 0.00533431)
(5.15663e-07 -1.33937e-06 0.00532596)
(4.32874e-07 -1.29242e-06 0.00531991)
(3.68781e-07 -1.25124e-06 0.00531584)
(3.35604e-07 -1.20999e-06 0.00531334)
(3.36383e-07 -1.15934e-06 0.00531211)
(3.66199e-07 -1.0954e-06 0.00531179)
(4.14498e-07 -1.02075e-06 0.00531193)
(4.73225e-07 -9.47095e-07 0.00531204)
(5.40578e-07 -8.82113e-07 0.0053117)
(6.15403e-07 -8.28785e-07 0.00531059)
(6.96562e-07 -7.8839e-07 0.00530834)
(7.83358e-07 -7.60699e-07 0.00530443)
(8.74928e-07 -7.44952e-07 0.00529804)
(9.70426e-07 -7.4009e-07 0.00528784)
(1.06861e-06 -7.44198e-07 0.00527185)
(1.16662e-06 -7.54326e-07 0.00524719)
(1.26107e-06 -7.6782e-07 0.00521002)
(1.34769e-06 -7.79389e-07 0.00515546)
(1.41835e-06 -7.82481e-07 0.00507763)
(1.46283e-06 -7.72246e-07 0.00496962)
(1.47142e-06 -7.45934e-07 0.0048233)
(1.43652e-06 -7.03948e-07 0.00462902)
(1.3544e-06 -6.49161e-07 0.00437514)
(1.22573e-06 -5.85561e-07 0.00404758)
(1.05564e-06 -5.16855e-07 0.00362984)
(8.53457e-07 -4.44694e-07 0.00310432)
(6.3315e-07 -3.66358e-07 0.00245661)
(4.16875e-07 -2.71653e-07 0.00168658)
(2.13565e-07 -1.4666e-07 0.000868614)
(1.13672e-07 -8.03011e-08 0.000516475)
(3.34185e-08 -3.43267e-08 0.000234726)
(-5.0512e-08 -4.1965e-08 0.000270993)
(-1.80712e-07 -1.02208e-07 0.000629306)
(-3.57248e-07 -1.98199e-07 0.00114915)
(-7.63451e-07 -3.98613e-07 0.00246359)
(-1.19665e-06 -5.48005e-07 0.00364646)
(-1.62656e-06 -6.72144e-07 0.00461216)
(-2.02067e-06 -7.95374e-07 0.00539431)
(-2.36196e-06 -9.25837e-07 0.00602568)
(-2.63747e-06 -1.06154e-06 0.00653332)
(-2.83717e-06 -1.19514e-06 0.00693927)
(-2.95467e-06 -1.31681e-06 0.00726109)
(-2.98823e-06 -1.4166e-06 0.00751281)
(-2.94179e-06 -1.48677e-06 0.00770589)
(-2.82548e-06 -1.52467e-06 0.00785028)
(-2.65421e-06 -1.53446e-06 0.00795501)
(-2.44603e-06 -1.52649e-06 0.00802848)
(-2.21619e-06 -1.51649e-06 0.0080784)
(-1.97304e-06 -1.51567e-06 0.00811149)
(-1.72338e-06 -1.52841e-06 0.00813317)
(-1.47449e-06 -1.55709e-06 0.00814744)
(-1.23272e-06 -1.60258e-06 0.008157)
(-1.0037e-06 -1.66472e-06 0.00816363)
(-7.92515e-07 -1.74181e-06 0.00816843)
(-6.04797e-07 -1.82967e-06 0.00817207)
(-4.47899e-07 -1.92219e-06 0.00817498)
(-3.33943e-07 -2.01275e-06 0.00817737)
(-2.67209e-07 -2.10494e-06 0.00817933)
(-2.44805e-07 -2.18739e-06 0.00818092)
(-2.66162e-07 -2.25161e-06 0.00818218)
(-3.25874e-07 -2.29484e-06 0.00818308)
(-4.12485e-07 -2.31833e-06 0.0081836)
(-5.09524e-07 -2.32372e-06 0.00818371)
(-5.98512e-07 -2.31044e-06 0.00818342)
(-6.62641e-07 -2.27562e-06 0.00818275)
(-6.90075e-07 -2.21626e-06 0.00818175)
(-6.75469e-07 -2.13316e-06 0.00818046)
(-6.19892e-07 -2.03343e-06 0.00817892)
(-5.23196e-07 -1.93134e-06 0.00817714)
(-3.88004e-07 -1.8296e-06 0.00817516)
(-2.2613e-07 -1.73246e-06 0.008173)
(-4.78084e-08 -1.64929e-06 0.00817062)
(1.41343e-07 -1.5865e-06 0.00816794)
(3.36625e-07 -1.54792e-06 0.00816482)
(5.33303e-07 -1.53555e-06 0.00816102)
(7.25944e-07 -1.55059e-06 0.00815615)
(9.08653e-07 -1.59414e-06 0.0081496)
(1.07614e-06 -1.66659e-06 0.00814053)
(1.22409e-06 -1.7648e-06 0.00812784)
(1.34805e-06 -1.87802e-06 0.00811051)
(1.43762e-06 -1.98528e-06 0.008088)
(1.47857e-06 -2.06748e-06 0.00806067)
(1.46086e-06 -2.1121e-06 0.00802994)
(1.38279e-06 -2.11769e-06 0.00799809)
(1.25326e-06 -2.09059e-06 0.00796783)
(1.0898e-06 -2.04058e-06 0.00794164)
(9.1423e-07 -1.9766e-06 0.00792109)
(7.46798e-07 -1.90603e-06 0.00790643)
(5.98742e-07 -1.83686e-06 0.00789663)
(4.84556e-07 -1.78505e-06 0.00789027)
(4.21786e-07 -1.73787e-06 0.0078868)
(4.16502e-07 -1.67317e-06 0.00788584)
(4.64729e-07 -1.5804e-06 0.00788656)
(5.50153e-07 -1.46146e-06 0.00788785)
(6.58601e-07 -1.34202e-06 0.00788874)
(7.85978e-07 -1.23717e-06 0.00788864)
(9.27347e-07 -1.15099e-06 0.00788727)
(1.07825e-06 -1.08595e-06 0.00788429)
(1.23629e-06 -1.042e-06 0.0078791)
(1.39927e-06 -1.01837e-06 0.0078706)
(1.5656e-06 -1.01401e-06 0.00785697)
(1.73344e-06 -1.02579e-06 0.00783525)
(1.89744e-06 -1.04849e-06 0.00780094)
(2.05228e-06 -1.07912e-06 0.00774765)
(2.19243e-06 -1.1068e-06 0.00766713)
(2.30371e-06 -1.11766e-06 0.00754969)
(2.36931e-06 -1.10302e-06 0.00738448)
(2.37514e-06 -1.05892e-06 0.00715965)
(2.31138e-06 -9.87965e-07 0.00686206)
(2.17451e-06 -8.97347e-07 0.00647671)
(1.967e-06 -7.95989e-07 0.00598568)
(1.69627e-06 -6.91822e-07 0.00536717)
(1.3737e-06 -5.88497e-07 0.00459469)
(1.0151e-06 -4.80824e-07 0.00363616)
(6.49875e-07 -3.49292e-07 0.00245863)
(3.04907e-07 -1.73233e-07 0.00114794)
(1.54328e-07 -8.92948e-08 0.000628988)
(4.31699e-08 -3.66289e-08 0.000270947)
(-5.93754e-08 -3.63616e-08 0.000293944)
(-2.20348e-07 -9.1807e-08 0.000707705)
(-4.49231e-07 -1.86716e-07 0.00135443)
(-1.00848e-06 -3.98439e-07 0.0030573)
(-1.59411e-06 -5.54639e-07 0.00452435)
(-2.14972e-06 -6.83096e-07 0.00566516)
(-2.64137e-06 -8.13972e-07 0.00656164)
(-3.0587e-06 -9.57918e-07 0.00727609)
(-3.39351e-06 -1.11272e-06 0.00784966)
(-3.63768e-06 -1.26906e-06 0.00831031)
(-3.78402e-06 -1.41374e-06 0.0086775)
(-3.82821e-06 -1.53225e-06 0.00896526)
(-3.77144e-06 -1.61215e-06 0.00918467)
(-3.62281e-06 -1.64726e-06 0.00934583)
(-3.39913e-06 -1.64181e-06 0.00945896)
(-3.12593e-06 -1.60982e-06 0.00953461)
(-2.82612e-06 -1.57875e-06 0.00958312)
(-2.50765e-06 -1.56694e-06 0.00961358)
(-2.17695e-06 -1.57724e-06 0.00963287)
(-1.84382e-06 -1.61056e-06 0.00964545)
(-1.51664e-06 -1.66688e-06 0.00965404)
(-1.20284e-06 -1.74558e-06 0.00966022)
(-9.08932e-07 -1.844e-06 0.00966496)
(-6.4284e-07 -1.95509e-06 0.00966878)
(-4.16078e-07 -2.06791e-06 0.00967204)
(-2.54655e-07 -2.16991e-06 0.0096749)
(-1.68963e-07 -2.27872e-06 0.00967737)
(-1.53782e-07 -2.37433e-06 0.00967947)
(-2.09783e-07 -2.44411e-06 0.00968114)
(-3.27465e-07 -2.48739e-06 0.00968234)
(-4.87771e-07 -2.50993e-06 0.00968301)
(-6.6479e-07 -2.51637e-06 0.00968316)
(-8.30065e-07 -2.50621e-06 0.00968279)
(-9.56982e-07 -2.47344e-06 0.00968191)
(-1.02525e-06 -2.41004e-06 0.00968056)
(-1.02387e-06 -2.31313e-06 0.0096788)
(-9.54408e-07 -2.19105e-06 0.00967672)
(-8.15419e-07 -2.06921e-06 0.00967436)
(-6.12296e-07 -1.94333e-06 0.00967183)
(-3.7031e-07 -1.81616e-06 0.00966915)
(-1.08044e-07 -1.7053e-06 0.00966628)
(1.67409e-07 -1.62104e-06 0.00966315)
(4.50287e-07 -1.5687e-06 0.00965964)
(7.34708e-07 -1.55055e-06 0.00965554)
(1.01316e-06 -1.56769e-06 0.00965049)
(1.2768e-06 -1.62216e-06 0.00964383)
(1.51747e-06 -1.71702e-06 0.00963443)
(1.72853e-06 -1.85055e-06 0.00962047)
(1.90257e-06 -2.00606e-06 0.00959958)
(2.0185e-06 -2.14691e-06 0.00956976)
(2.05063e-06 -2.24539e-06 0.00953055)
(1.9866e-06 -2.28714e-06 0.00948382)
(1.83067e-06 -2.27663e-06 0.00943355)
(1.6037e-06 -2.22941e-06 0.00938498)
(1.33782e-06 -2.16427e-06 0.00934326)
(1.0698e-06 -2.09569e-06 0.00931208)
(8.32093e-07 -2.03041e-06 0.00929258)
(6.33248e-07 -1.96644e-06 0.00928218)
(4.8068e-07 -1.9173e-06 0.0092755)
(3.90798e-07 -1.87536e-06 0.00927342)
(3.75886e-07 -1.81e-06 0.0092756)
(4.40701e-07 -1.70059e-06 0.00927973)
(5.64087e-07 -1.54048e-06 0.00928344)
(7.23693e-07 -1.37816e-06 0.00928545)
(9.11513e-07 -1.24069e-06 0.00928578)
(1.11668e-06 -1.12894e-06 0.00928466)
(1.33035e-06 -1.04553e-06 0.00928209)
(1.54922e-06 -9.90022e-07 0.00927773)
(1.77029e-06 -9.62076e-07 0.00927076)
(1.99227e-06 -9.6198e-07 0.00925962)
(2.2143e-06 -9.85361e-07 0.00924157)
(2.42783e-06 -1.02533e-06 0.00921197)
(2.62769e-06 -1.08461e-06 0.00916319)
(2.81304e-06 -1.1435e-06 0.00908442)
(2.96188e-06 -1.17745e-06 0.00896281)
(3.0497e-06 -1.17466e-06 0.00878487)
(3.05989e-06 -1.13072e-06 0.00853693)
(2.98243e-06 -1.05138e-06 0.00820509)
(2.81529e-06 -9.4812e-07 0.00777381)
(2.56189e-06 -8.33772e-07 0.00722339)
(2.22867e-06 -7.19036e-07 0.00652643)
(1.82359e-06 -6.08618e-07 0.00564278)
(1.35736e-06 -4.95631e-07 0.00451129)
(8.61128e-07 -3.55568e-07 0.00305109)
(3.84403e-07 -1.66119e-07 0.00135301)
(1.88592e-07 -8.15938e-08 0.000707363)
(5.08381e-08 -3.22716e-08 0.000293901)
(-6.55441e-08 -2.45061e-08 0.000307354)
(-2.48939e-07 -6.42604e-08 0.000755598)
(-5.16745e-07 -1.37199e-07 0.00148505)
(-1.19732e-06 -3.0877e-07 0.00345662)
(-1.90328e-06 -4.41105e-07 0.00510714)
(-2.55106e-06 -5.54494e-07 0.00633743)
(-3.10673e-06 -6.74165e-07 0.00727179)
(-3.56894e-06 -8.08939e-07 0.00800131)
(-3.93648e-06 -9.55773e-07 0.00858096)
(-4.2047e-06 -1.10451e-06 0.00904408)
(-4.36652e-06 -1.2405e-06 0.00941117)
(-4.41491e-06 -1.34712e-06 0.00969536)
(-4.3468e-06 -1.40961e-06 0.00990631)
(-4.16797e-06 -1.42064e-06 0.0100536)
(-3.89529e-06 -1.38609e-06 0.0101489)
(-3.56641e-06 -1.31968e-06 0.0102057)
(-3.21829e-06 -1.26076e-06 0.0102375)
(-2.8506e-06 -1.23499e-06 0.0102556)
(-2.46297e-06 -1.24017e-06 0.0102667)
(-2.06896e-06 -1.27526e-06 0.0102743)
(-1.67863e-06 -1.33863e-06 0.01028)
(-1.29987e-06 -1.4301e-06 0.0102845)
(-9.39029e-07 -1.54749e-06 0.0102883)
(-6.05148e-07 -1.68023e-06 0.0102916)
(-3.11981e-07 -1.8059e-06 0.0102947)
(-1.06906e-07 -1.88688e-06 0.0102976)
(-5.747e-09 -1.96322e-06 0.0103004)
(1.07392e-09 -2.02222e-06 0.010303)
(-9.24133e-08 -2.05486e-06 0.010305)
(-2.71177e-07 -2.06684e-06 0.0103062)
(-5.07079e-07 -2.07078e-06 0.0103068)
(-7.65337e-07 -2.07531e-06 0.010307)
(-1.00923e-06 -2.08009e-06 0.0103067)
(-1.2032e-06 -2.07544e-06 0.0103059)
(-1.31721e-06 -2.04642e-06 0.0103044)
(-1.33161e-06 -1.98274e-06 0.0103021)
(-1.25107e-06 -1.88861e-06 0.0102995)
(-1.07241e-06 -1.78883e-06 0.0102968)
(-8.02188e-07 -1.65357e-06 0.0102942)
(-4.84653e-07 -1.49588e-06 0.0102914)
(-1.49261e-07 -1.35704e-06 0.0102884)
(1.9843e-07 -1.25278e-06 0.0102853)
(5.53046e-07 -1.18841e-06 0.0102819)
(9.09245e-07 -1.16435e-06 0.0102782)
(1.25865e-06 -1.18007e-06 0.0102741)
(1.58967e-06 -1.23919e-06 0.010269)
(1.89073e-06 -1.35018e-06 0.0102622)
(2.15476e-06 -1.51101e-06 0.0102517)
(2.3763e-06 -1.69158e-06 0.0102335)
(2.51712e-06 -1.83601e-06 0.0102026)
(2.53108e-06 -1.91871e-06 0.0101559)
(2.40411e-06 -1.93059e-06 0.0100945)
(2.1515e-06 -1.88329e-06 0.0100243)
(1.81063e-06 -1.79922e-06 0.00995397)
(1.43004e-06 -1.70205e-06 0.00989225)
(1.06356e-06 -1.60654e-06 0.00984638)
(7.68841e-07 -1.51476e-06 0.00982041)
(5.72684e-07 -1.43404e-06 0.00981175)
(4.36156e-07 -1.45341e-06 0.00980745)
(3.23524e-07 -1.4837e-06 0.00981177)
(2.82864e-07 -1.47826e-06 0.00982225)
(3.54608e-07 -1.41324e-06 0.00983247)
(5.12091e-07 -1.26806e-06 0.00983844)
(7.19607e-07 -1.10308e-06 0.00984048)
(9.60821e-07 -9.5227e-07 0.00984053)
(1.22028e-06 -8.23567e-07 0.00983948)
(1.48395e-06 -7.27207e-07 0.00983763)
(1.74886e-06 -6.63668e-07 0.00983495)
(2.01157e-06 -6.3342e-07 0.00983111)
(2.27217e-06 -6.38731e-07 0.00982538)
(2.53299e-06 -6.74453e-07 0.00981627)
(2.77693e-06 -7.32885e-07 0.00980084)
(3.00113e-06 -8.19865e-07 0.00977281)
(3.22726e-06 -9.09812e-07 0.0097194)
(3.41699e-06 -9.74575e-07 0.00962387)
(3.53139e-06 -1.0004e-06 0.00946888)
(3.55247e-06 -9.78485e-07 0.00923842)
(3.47162e-06 -9.14946e-07 0.00891815)
(3.28941e-06 -8.2318e-07 0.00849286)
(3.01019e-06 -7.17923e-07 0.00794201)
(2.63846e-06 -6.11423e-07 0.00723345)
(2.177e-06 -5.09729e-07 0.00631386)
(1.62933e-06 -4.07805e-07 0.00509384)
(1.02713e-06 -2.85264e-07 0.00345052)
(4.43904e-07 -1.26306e-07 0.00148376)
(2.13791e-07 -5.90797e-08 0.000755313)
(5.62819e-08 -2.24924e-08 0.000307328)
(-6.87448e-08 -8.29027e-09 0.000313673)
(-2.64299e-07 -2.4221e-08 0.000778528)
(-5.53638e-07 -5.8738e-08 0.00154915)
(-1.30474e-06 -1.48205e-07 0.00366026)
(-2.08343e-06 -2.33255e-07 0.00540402)
(-2.78786e-06 -3.20132e-07 0.00667364)
(-3.38416e-06 -4.19067e-07 0.00761774)
(-3.87758e-06 -5.32485e-07 0.00834521)
(-4.27179e-06 -6.55578e-07 0.00891919)
(-4.56375e-06 -7.7755e-07 0.00937526)
(-4.74489e-06 -8.82439e-07 0.00973304)
(-4.80421e-06 -9.51255e-07 0.0100033)
(-4.73341e-06 -9.65999e-07 0.0101933)
(-4.53431e-06 -9.16472e-07 0.0103125)
(-4.22008e-06 -8.03417e-07 0.010376)
(-3.84154e-06 -6.34055e-07 0.0104037)
(-3.45417e-06 -4.96691e-07 0.0104145)
(-3.04742e-06 -4.57311e-07 0.0104201)
(-2.61869e-06 -4.69106e-07 0.0104244)
(-2.18541e-06 -5.10933e-07 0.0104281)
(-1.75494e-06 -5.81999e-07 0.0104315)
(-1.33448e-06 -6.8279e-07 0.0104347)
(-9.29928e-07 -8.10623e-07 0.0104378)
(-5.50381e-07 -9.46917e-07 0.0104407)
(-1.98561e-07 -1.05465e-06 0.0104433)
(7.10347e-08 -1.09011e-06 0.0104458)
(2.11345e-07 -1.19343e-06 0.0104494)
(2.05536e-07 -1.26414e-06 0.0104529)
(6.49654e-08 -1.29481e-06 0.0104551)
(-1.78462e-07 -1.30108e-06 0.0104559)
(-4.85862e-07 -1.30088e-06 0.0104561)
(-8.17817e-07 -1.30489e-06 0.0104562)
(-1.13582e-06 -1.31272e-06 0.0104562)
(-1.40052e-06 -1.31289e-06 0.0104559)
(-1.5722e-06 -1.28559e-06 0.0104545)
(-1.61472e-06 -1.21142e-06 0.0104516)
(-1.51421e-06 -1.0841e-06 0.010448)
(-1.27045e-06 -9.99073e-07 0.0104452)
(-9.28424e-07 -8.91267e-07 0.0104429)
(-5.52241e-07 -7.26676e-07 0.0104403)
(-1.66344e-07 -5.70394e-07 0.0104375)
(2.32597e-07 -4.52058e-07 0.0104344)
(6.38225e-07 -3.77873e-07 0.0104313)
(1.04642e-06 -3.46087e-07 0.0104281)
(1.44844e-06 -3.53882e-07 0.0104247)
(1.83129e-06 -4.0384e-07 0.0104212)
(2.18537e-06 -5.06436e-07 0.0104175)
(2.50984e-06 -6.83174e-07 0.0104131)
(2.79794e-06 -9.24993e-07 0.0104038)
(2.97443e-06 -1.12555e-06 0.0103804)
(2.96736e-06 -1.23781e-06 0.0103349)
(2.77072e-06 -1.26192e-06 0.0102657)
(2.41957e-06 -1.22255e-06 0.01018)
(1.97162e-06 -1.1513e-06 0.0100903)
(1.49141e-06 -1.08118e-06 0.0100089)
(1.04536e-06 -1.03528e-06 0.00994496)
(7.04744e-07 -1.01635e-06 0.00990389)
(4.95139e-07 -1.00061e-06 0.00988694)
(3.54701e-07 -9.79215e-07 0.00989267)
(2.09372e-07 -9.68466e-07 0.00991253)
(1.21102e-07 -9.46061e-07 0.00993592)
(1.7712e-07 -8.73033e-07 0.00995185)
(3.70833e-07 -6.85007e-07 0.0099567)
(6.64334e-07 -5.47528e-07 0.00995663)
(9.65574e-07 -4.27317e-07 0.00995566)
(1.26516e-06 -2.97211e-07 0.00995433)
(1.56263e-06 -1.89487e-07 0.00995282)
(1.85786e-06 -1.11912e-07 0.00995115)
(2.14836e-06 -6.56167e-08 0.00994932)
(2.43447e-06 -5.69729e-08 0.00994727)
(2.71966e-06 -8.08067e-08 0.00994462)
(2.99269e-06 -1.10272e-07 0.009941)
(3.24105e-06 -2.35942e-07 0.00993507)
(3.50636e-06 -4.23936e-07 0.00991514)
(3.72934e-06 -5.6371e-07 0.00985904)
(3.86232e-06 -6.46704e-07 0.00974095)
(3.88844e-06 -6.69071e-07 0.00953963)
(3.79996e-06 -6.39916e-07 0.00924016)
(3.601e-06 -5.75297e-07 0.0088292)
(3.29861e-06 -4.91912e-07 0.00828784)
(2.89731e-06 -4.03478e-07 0.00758281)
(2.39678e-06 -3.1824e-07 0.00665357)
(1.79551e-06 -2.37002e-07 0.00539351)
(1.12581e-06 -1.52346e-07 0.00365582)
(4.77923e-07 -6.07666e-08 0.00154831)
(2.27962e-07 -2.53968e-08 0.000778379)
(5.92475e-08 -8.79304e-09 0.000313677)
(-6.87676e-08 1.00305e-08 0.000314257)
(-2.65064e-07 2.18132e-08 0.000780003)
(-5.56053e-07 3.35396e-08 0.00155209)
(-1.31373e-06 4.68722e-08 0.00366891)
(-2.10337e-06 2.21533e-08 0.00541822)
(-2.8231e-06 -3.06766e-08 0.00669388)
(-3.43989e-06 -1.02282e-07 0.00764567)
(-3.95989e-06 -1.8655e-07 0.00838319)
(-4.38678e-06 -2.76906e-07 0.00896968)
(-4.71544e-06 -3.63017e-07 0.00943979)
(-4.93194e-06 -4.29299e-07 0.0098106)
(-5.01581e-06 -4.56547e-07 0.0100883)
(-4.94691e-06 -4.27581e-07 0.0102751)
(-4.71614e-06 -3.39332e-07 0.010378)
(-4.33932e-06 -2.12885e-07 0.0104173)
(-3.92057e-06 -6.00946e-08 0.0104248)
(-3.52146e-06 7.44522e-09 0.010426)
(-3.1123e-06 2.00063e-09 0.0104284)
(-2.6674e-06 -2.37336e-08 0.0104316)
(-2.21082e-06 -7.62808e-08 0.0104347)
(-1.75623e-06 -1.54887e-07 0.0104377)
(-1.31022e-06 -2.5869e-07 0.0104407)
(-8.77774e-07 -3.82934e-07 0.0104437)
(-4.70111e-07 -5.17545e-07 0.0104465)
(-1.18039e-07 -6.48127e-07 0.0104489)
(1.20951e-07 -6.57219e-07 0.0104509)
(3.05244e-07 -6.3569e-07 0.0104552)
(3.41395e-07 -6.03462e-07 0.0104598)
(1.94151e-07 -5.57922e-07 0.0104622)
(-8.87172e-08 -5.16304e-07 0.0104624)
(-4.51777e-07 -4.92666e-07 0.010462)
(-8.45374e-07 -4.92849e-07 0.010462)
(-1.22406e-06 -5.15478e-07 0.0104625)
(-1.53909e-06 -5.52384e-07 0.0104628)
(-1.73467e-06 -5.882e-07 0.0104616)
(-1.7539e-06 -6.04215e-07 0.0104578)
(-1.60066e-06 -5.97211e-07 0.0104532)
(-1.36244e-06 -6.0189e-07 0.0104505)
(-1.04351e-06 -4.68778e-07 0.0104487)
(-6.33091e-07 -2.8299e-07 0.0104462)
(-2.06518e-07 -1.29164e-07 0.0104434)
(2.31158e-07 -7.35359e-09 0.0104404)
(6.75043e-07 7.31422e-08 0.0104373)
(1.1211e-06 1.14146e-07 0.0104342)
(1.56271e-06 1.192e-07 0.010431)
(1.98733e-06 8.27682e-08 0.0104276)
(2.37681e-06 -2.57726e-09 0.0104245)
(2.72931e-06 -1.39913e-07 0.0104227)
(3.05612e-06 -3.24473e-07 0.01042)
(3.30342e-06 -4.59663e-07 0.010405)
(3.35245e-06 -5.37959e-07 0.0103609)
(3.15668e-06 -5.38593e-07 0.0102805)
(2.76376e-06 -4.86857e-07 0.0101743)
(2.25488e-06 -4.18977e-07 0.0100633)
(1.71027e-06 -3.72133e-07 0.00996727)
(1.19788e-06 -3.70228e-07 0.00989825)
(7.68823e-07 -4.14976e-07 0.00986062)
(4.48404e-07 -4.69119e-07 0.00985204)
(1.91924e-07 -4.32621e-07 0.00986566)
(-2.22011e-08 -4.1307e-07 0.00989823)
(-1.14845e-07 -4.25098e-07 0.00993482)
(3.40554e-08 -4.19067e-07 0.00995569)
(2.75937e-07 -3.58104e-07 0.00995823)
(6.00941e-07 -3.11938e-07 0.00995736)
(9.11892e-07 -1.85283e-07 0.00995599)
(1.23609e-06 -6.15655e-08 0.00995455)
(1.55788e-06 5.14521e-08 0.00995304)
(1.87983e-06 1.36645e-07 0.00995146)
(2.19688e-06 1.89761e-07 0.00994983)
(2.50727e-06 2.10355e-07 0.00994818)
(2.81544e-06 1.991e-07 0.00994618)
(3.08197e-06 1.59917e-07 0.00994419)
(3.31342e-06 1.21347e-07 0.00994435)
(3.59117e-06 -2.48555e-09 0.00994293)
(3.87101e-06 -1.25632e-07 0.0099139)
(4.03903e-06 -2.32807e-07 0.00981622)
(4.06973e-06 -2.89049e-07 0.00962145)
(3.96365e-06 -2.93628e-07 0.0093167)
(3.7361e-06 -2.59857e-07 0.00889404)
(3.40278e-06 -2.03679e-07 0.00833926)
(2.97292e-06 -1.3869e-07 0.00762182)
(2.44799e-06 -7.49879e-08 0.00668211)
(1.82663e-06 -2.09669e-08 0.00541328)
(1.14108e-06 1.36602e-08 0.00366742)
(4.82649e-07 1.81456e-08 0.00155197)
(2.29729e-07 1.41202e-08 0.000780045)
(5.95126e-08 6.97012e-09 0.000314299)
(-6.55969e-08 2.80257e-08 0.000309558)
(-2.51008e-07 6.64763e-08 0.00076084)
(-5.2318e-07 1.21553e-07 0.00149445)
(-1.22075e-06 2.30609e-07 0.00348155)
(-1.95548e-06 2.65913e-07 0.00514702)
(-2.64501e-06 2.51747e-07 0.00639433)
(-3.25851e-06 2.13986e-07 0.00735157)
(-3.7976e-06 1.65784e-07 0.00811263)
(-4.2616e-06 1.14902e-07 0.00873418)
(-4.64079e-06 7.06017e-08 0.00924902)
(-4.91414e-06 4.69463e-08 0.00967239)
(-5.05001e-06 6.14438e-08 0.0100049)
(-5.01709e-06 1.27131e-07 0.0102384)
(-4.79507e-06 2.37915e-07 0.0103701)
(-4.37445e-06 3.67741e-07 0.0104178)
(-3.98934e-06 4.67424e-07 0.0104241)
(-3.6149e-06 5.44983e-07 0.0104249)
(-3.17981e-06 5.67101e-07 0.0104275)
(-2.70104e-06 5.51954e-07 0.0104309)
(-2.22086e-06 4.98594e-07 0.0104342)
(-1.74105e-06 4.14783e-07 0.0104372)
(-1.26329e-06 3.05504e-07 0.0104403)
(-7.92938e-07 1.68121e-07 0.0104434)
(-3.51044e-07 2.21668e-08 0.0104464)
(1.27372e-08 -1.40287e-07 0.0104485)
(2.78646e-07 -2.16821e-07 0.0104446)
(4.33816e-07 -1.00356e-07 0.0104314)
(4.0986e-07 5.38931e-08 0.0104108)
(2.23086e-07 1.89791e-07 0.0103893)
(-7.65839e-08 2.85068e-07 0.0103722)
(-4.43944e-07 3.34092e-07 0.0103624)
(-8.38651e-07 3.38529e-07 0.0103608)
(-1.22296e-06 3.00737e-07 0.0103678)
(-1.55606e-06 2.2284e-07 0.0103826)
(-1.79034e-06 1.10648e-07 0.0104031)
(-1.87043e-06 -1.88375e-08 0.010425)
(-1.75237e-06 -1.35193e-07 0.0104417)
(-1.50375e-06 -1.10049e-07 0.010449)
(-1.16411e-06 7.80924e-08 0.0104489)
(-7.10395e-07 2.68471e-07 0.0104462)
(-2.4912e-07 4.5126e-07 0.0104431)
(2.29841e-07 5.81872e-07 0.01044)
(7.07721e-07 6.69649e-07 0.0104369)
(1.1854e-06 7.16591e-07 0.0104338)
(1.6575e-06 7.2683e-07 0.0104305)
(2.11789e-06 6.8161e-07 0.010427)
(2.54402e-06 5.67632e-07 0.0104241)
(2.90384e-06 4.32234e-07 0.0104224)
(3.22476e-06 2.97778e-07 0.0104179)
(3.5275e-06 2.08783e-07 0.0103847)
(3.56288e-06 1.84349e-07 0.010291)
(3.3457e-06 2.15142e-07 0.0101329)
(2.93879e-06 2.75944e-07 0.00993715)
(2.42155e-06 3.44657e-07 0.00974725)
(1.87056e-06 3.86825e-07 0.00959869)
(1.3423e-06 3.88252e-07 0.00950479)
(8.63053e-07 3.58156e-07 0.00946618)
(4.37683e-07 3.2149e-07 0.00948031)
(8.50841e-08 2.96848e-07 0.00954479)
(-1.62037e-07 2.4796e-07 0.00965566)
(-2.6781e-07 1.53109e-07 0.0097901)
(-1.65982e-07 4.46908e-08 0.00989978)
(1.54562e-07 -6.45669e-08 0.00994974)
(4.95764e-07 -1.14841e-08 0.00995751)
(8.27012e-07 1.24889e-07 0.00995618)
(1.15611e-06 2.6993e-07 0.00995436)
(1.50037e-06 3.89412e-07 0.00995265)
(1.8402e-06 4.85027e-07 0.00995096)
(2.17749e-06 5.50514e-07 0.00994928)
(2.51088e-06 5.83606e-07 0.00994754)
(2.84717e-06 5.70198e-07 0.0099455)
(3.15023e-06 5.19198e-07 0.0099436)
(3.38826e-06 4.82986e-07 0.00994346)
(3.62224e-06 4.01994e-07 0.00994162)
(3.93836e-06 2.83923e-07 0.00990235)
(4.09526e-06 1.74915e-07 0.00977406)