/*--------------------------------*- C++ -*----------------------------------*\
| =========                 |                                                 |
| \\      /  F ield         | OpenFOAM: The Open Source CFD Toolbox           |
|  \\    /   O peration     | Version:  2406                                  |
|   \\  /    A nd           | Website:  www.openfoam.com                      |
|    \\/     M anipulation  |                                                 |
\*---------------------------------------------------------------------------*/
FoamFile
{
    version     2.0;
    format      ascii;
    arch        "LSB;label=32;scalar=64";
    class       volScalarField;
    location    "200";
    object      nu;
}
// * * * * * * * * * * * * * * * * * * * * * * * * * * * * * * * * * * * * * //

dimensions      [0 2 -1 0 0 0 0];

internalField   nonuniform List<scalar> 
46980
(
22.3015
18.7273
16.2851
14.5095
13.4213
12.8192
12.4996
12.3375
12.2592
12.2234
12.2082
12.2025
12.2004
12.1995
12.1986
12.1973
12.1953
12.1929
12.1903
12.1878
12.1855
12.1834
12.1816
12.1802
12.1792
12.1786
12.1784
12.1787
12.1794
12.1804
12.1817
12.1832
12.1847
12.1859
12.1867
12.1872
12.1875
12.1875
12.1874
12.1873
12.1872
12.187
12.1866
12.1861
12.1855
12.1846
12.1838
12.1831
12.1826
12.1823
12.1823
12.1827
12.1835
12.1846
12.186
12.1876
12.1892
12.1908
12.1924
12.1941
12.196
12.198
12.2003
12.2027
12.2052
12.2077
12.2101
12.2122
12.2139
12.2149
12.2151
12.2145
12.2132
12.2115
12.21
12.2103
12.2149
12.2295
12.2651
12.3437
12.5065
12.827
13.4304
14.5201
16.2975
18.7423
22.3212
18.4715
21.3174
19.0656
15.3187
13.7504
13.0218
12.6725
12.5143
12.4473
12.4214
12.4133
12.4125
12.4141
12.4151
12.4148
12.4129
12.4098
12.4064
12.4036
12.4018
12.4009
12.4004
12.4
12.3994
12.3988
12.3985
12.3987
12.3996
12.4013
12.4035
12.4062
12.4091
12.412
12.4145
12.4164
12.4175
12.4182
12.4185
12.4191
12.4201
12.4213
12.4223
12.4227
12.4223
12.4211
12.4192
12.4169
12.4144
12.4123
12.4107
12.4099
12.4096
12.4099
12.4105
12.4116
12.4132
12.415
12.4167
12.4182
12.4194
12.4204
12.4213
12.4221
12.4226
12.4228
12.4225
12.4221
12.4218
12.4217
12.4215
12.4206
12.4186
12.4156
12.4118
12.408
12.4056
12.4067
12.4158
12.4434
12.513
12.6744
13.0266
13.7581
15.329
19.0785
21.3322
18.4866
16.3458
19.4439
16.4506
14.1147
13.9948
14.0422
14.1295
14.2032
14.2501
14.2784
14.2963
14.3093
14.3201
14.3273
14.329
14.3259
14.3214
14.3186
14.3186
14.3215
14.3263
14.3312
14.3341
14.3338
14.3323
14.331
14.3306
14.3314
14.3337
14.3377
14.3429
14.3484
14.3539
14.3594
14.3645
14.3681
14.3699
14.3705
14.3711
14.3727
14.3753
14.3783
14.3798
14.3784
14.3751
14.3704
14.3649
14.3595
14.3556
14.3537
14.3535
14.3537
14.3534
14.3524
14.3517
14.3527
14.3558
14.3602
14.3648
14.3689
14.3713
14.3714
14.3693
14.3659
14.3606
14.3527
14.3439
14.3365
14.3312
14.3273
14.323
14.3168
14.3086
14.2994
14.2903
14.281
14.2703
14.2549
14.23
14.1887
14.1239
14.0418
13.9986
14.1225
16.4617
19.4569
16.3588
15.2453
17.7836
14.9303
14.2693
17.1923
20.798
23.9662
25.8529
26.7633
27.1746
27.3521
27.4325
27.4897
27.546
27.5651
27.5548
27.5651
27.6017
27.6542
27.715
27.7809
27.8458
27.8854
27.8842
27.8701
27.8584
27.8467
27.8343
27.8285
27.8351
27.8495
27.8616
27.8651
27.8794
27.9224
27.9673
27.9895
27.9973
28.0005
28.0007
28.0065
28.0229
28.0306
28.0108
27.9863
27.9635
27.9347
27.9125
27.9066
27.9125
27.9254
27.9364
27.9317
27.9113
27.8861
27.8684
27.8752
27.9115
27.9607
28.0121
28.0498
28.055
28.0246
27.9763
27.9098
27.8151
27.7175
27.6388
27.5838
27.5433
27.5041
27.4547
27.4001
27.3524
27.3137
27.2707
27.1932
27.0192
26.6191
25.7365
23.9183
20.7731
17.1855
14.2737
14.9392
17.7949
15.257
14.6642
16.8561
14.1994
14.4245
20.9142
35.5527
61.6319
86.9391
103.642
111.242
113.461
112.922
112.12
113.374
114.127
114.54
117.567
121.449
125.012
128.013
130.599
133.99
136.885
136.722
135.934
135.576
134.361
132.364
131.222
131.367
131.461
130.304
127.161
124.291
125.335
129.32
131.447
132.533
133.964
134.042
132.815
133.296
133.716
131.873
131.288
131.144
129.78
129.219
129.871
130.219
130.745
131.392
131.356
130.732
129.373
127.23
126.259
127.821
130.48
133.461
137.166
139.058
137.738
135.138
131.739
125.557
120.714
118.206
116.951
115.794
114.177
112
110.068
109.121
108.998
109.126
108.806
106.768
100.333
85.4797
61.0912
35.4326
20.8954
14.4272
14.2068
16.8661
14.675
14.3685
16.3894
13.8611
14.5612
23.9866
59.2973
249.085
225.955
183.586
170.318
168.654
174.07
179.309
184.392
188.398
190.679
183.642
172.228
166.529
166.585
172.114
181.134
185.689
178.574
173.183
170.541
169.076
168.196
166.291
170.805
184.2
207.469
230.775
222.052
198.46
197.514
203.712
197.406
184.436
176.381
173.371
170.827
171.847
174.976
175.13
169.381
167.32
172.955
183.268
201.323
225.917
244.527
235.36
206.861
186.418
176.208
166.827
169.384
193.189
243.644
296.879
349.14
318.815
229.231
178.201
156.445
153.934
161.853
171.992
178.279
177.009
169.731
164.253
164.032
167.101
170.566
172.292
169.924
162.255
166.64
265.682
58.9254
23.9668
14.5649
13.868
16.3983
14.3786
14.2381
16.1935
13.7319
14.6342
25.4257
75.7742
163.004
185.748
204.744
201.379
195.975
195.563
186.816
176.469
171.473
194.632
219.244
219.485
230.031
244.38
255.856
264.717
269.057
275.894
305.85
326.898
299.124
235.754
205.438
232.061
290.248
311.029
298.847
232.163
211.481
234.686
229.968
225.372
246.541
292.816
246.009
204.898
195.607
197.919
207.58
205.002
204.983
228.93
247.231
230.984
218.023
207.221
210.497
239.302
255.311
201.254
180.359
220.211
268.861
197.68
172.06
167.105
177.236
213.718
291.358
197.937
160.69
153.642
161.338
174.991
183.362
180.044
169.32
161.595
159.764
161.59
165.055
168.64
180.7
234.71
187.891
75.8972
25.4344
14.6398
13.7385
16.2015
14.2474
14.2166
16.1758
13.7268
14.6455
25.5395
77.1862
172.48
177.192
181.632
203.286
241.684
231.276
187.789
165.422
153.11
164.389
247.049
273.332
261.593
262.532
270.433
284.048
318.464
245.606
178.752
162.053
167.225
193.746
290.795
287.994
253.916
253.005
264.184
240.842
229.362
181.973
161.323
151.892
144.167
145.349
161.518
213.493
318.784
260.836
276.726
251.25
188.155
159.004
153.581
161.343
169.426
165.051
161.401
160.721
168.268
187.252
268.786
221.175
171.089
172.277
175.419
173.188
163.783
158.646
183.066
277.211
268.978
199.483
174.637
167.962
170.67
185.135
184.983
170.757
160.38
158.483
165.571
188.568
225.063
203.347
175.067
77.3255
25.5462
14.6514
13.7331
16.1829
14.2252
14.2895
16.3288
13.8466
14.6037
24.3551
62.5178
246.312
202.548
182.611
180.469
192.634
192.06
168.427
165.949
181.151
144.106
170.058
237.52
251.906
252.205
258.117
285.356
279.826
170.137
146.258
151.17
151.373
151.405
198.378
244.314
228.65
231.337
237.946
240.89
263.769
206.203
198.952
198.219
179.951
153.967
139.728
151.687
216.601
251.665
214.93
177.341
150.015
148.342
171.513
202.029
209.194
190.687
193.483
179.081
156.781
157.623
203.315
182.373
172.447
203.005
203.269
205.948
190.109
166.263
165.591
204.79
278.082
301.081
257.969
193.927
161.028
166.828
194.901
202.07
194.052
191.048
188.755
194.519
195.806
199.419
239.304
62.5412
24.362
14.6097
13.8521
16.3348
14.2973
14.4718
16.7307
14.1861
14.5305
21.5468
38.3155
71.4337
105.592
129.775
149.894
175.478
182.139
156.196
157.252
277.649
151.611
145.286
227.714
262.615
254.621
260.042
313.38
213.345
151.628
155.61
179.82
176.829
156.629
193.063
224.937
196.075
192.252
180.963
180.648
243.138
228.602
218.28
233.503
239.75
206.529
164.294
151.723
185.634
251.337
188.768
166.176
159.76
177.977
215.879
234.087
202.261
82.5158
45.1802
36.395
33.6173
32.7678
32.7749
33.2848
34.7751
39.035
53.2011
144.234
205.952
179.889
171.632
195.827
241.776
257.067
257.362
260.964
232.051
174.141
189.185
242.551
243.234
217.248
196.372
156.645
132.701
107.785
72.268
38.4389
21.5677
14.5363
14.1901
16.7351
14.4786
14.7918
17.5678
14.9877
14.5207
17.9308
22.2245
26.13
28.6585
30.3604
32.1777
35.499
44.5065
80.1055
150.527
254.407
168.048
142.562
208.527
269.873
252.85
261.561
329.488
198.108
152.604
152.576
64.9817
42.571
36.2531
33.8558
32.6167
31.961
31.7287
31.8872
32.7058
34.578
38.8945
52.9102
143.511
222.859
213.372
187.892
168.774
184.731
256.143
184.114
176.079
179.712
191.868
215.631
108.115
40.9971
25.772
18.0429
16.7124
16.3046
16.1724
16.1768
16.2894
16.5731
17.2675
19.4316
34.3391
117.223
200.528
182.118
193.916
215.626
217.027
196.545
167.875
161.954
196.54
192.989
191.37
167.021
76.5203
43.4931
34.8663
31.4077
29.0806
26.2936
22.2807
17.9462
14.5248
14.9897
17.5703
14.7977
15.2504
19.1813
16.968
14.8485
14.9772
15.1834
15.4038
15.6074
15.8147
16.0987
16.6329
18.1092
26.4136
44.767
155.324
176.564
150.476
189.39
280.282
249.368
260.515
326.911
237.034
254.836
53.3972
21.6771
18.0298
16.8896
16.4011
16.151
16.0278
15.9942
16.0453
16.2029
16.5289
17.2375
19.389
34.138
114.129
214.668
196.048
184.302
186.908
227.539
188.976
189.4
191.216
205.847
95.5029
30.868
17.8133
14.8495
14.5673
15.264
15.3524
15.3695
15.4
15.46
15.5461
15.5655
14.8988
16.5673
33.6456
142.159
184.002
174.436
175.088
170.677
156.762
142.815
133.691
139.33
231.251
92.7557
39.0627
25.2348
17.864
16.4981
15.9826
15.6818
15.4362
15.1973
14.9826
14.85
16.9672
19.1813
15.2554
15.7398
21.7047
23.0185
18.7151
16.6542
15.751
15.3619
15.2301
15.2194
15.2528
15.2213
14.5712
14.9882
18.7133
37.6228
118.749
171.205
188.44
283.337
252.402
265.976
316.963
230.254
62.9861
21.3661
15.7969
15.8903
15.7189
15.5363
15.4126
15.3463
15.3299
15.3581
15.4266
15.5235
15.5489
14.8821
16.535
33.4551
139.85
204.199
185.911
170.6
176.092
194.045
207.901
204.416
128.292
31.7559
16.0134
14.4191
15.8425
19.5909
21.9641
22.9279
23.2812
23.4042
23.3697
22.9883
21.6383
18.3627
14.8555
18.9644
48.4657
157.452
146.295
149.535
156.739
159.987
159.666
153.664
135.486
75.6878
29.3283
17.5385
14.7615
14.4927
15.1441
15.2098
15.2358
15.3677
15.7548
16.6563
18.7151
23.0117
21.701
15.7439
16.1119
23.5788
29.036
28.377
25.8517
24.2541
23.4484
23.0802
22.8809
22.5736
21.6788
19.3373
15.6969
14.5577
18.4146
41.8763
143.121
219.993
265.893
273.629
273.287
280.682
281.148
40.2754
17.7302
15.7732
20.0357
22.5054
23.2655
23.4253
23.4269
23.4142
23.4072
23.3328
22.9479
21.6097
18.3465
14.8401
18.9312
48.324
168.116
153.222
147.459
147.827
167.953
187.612
217.501
47.3531
18.6184
14.6341
18.1882
22.8213
28.084
32.2311
34.7324
35.9015
36.0749
35.228
32.8763
28.2538
21.4281
15.4065
16.8645
35.6581
129.332
139.047
150.245
178.122
207.427
199.865
200.102
80.2062
28.5173
15.5852
14.2879
15.7402
19.3897
21.6224
22.5245
22.9475
23.3959
24.2293
25.8344
28.3556
29.0117
23.5711
16.1154
16.3651
24.7376
33.2084
37.8727
37.8995
36.5883
35.5743
34.9136
34.2768
33.1591
30.8675
26.7602
21.0846
15.5668
14.8963
25.4906
72.2319
190.698
242.086
268.894
269.374
215.682
179.448
33.9817
16.5658
15.5494
22.2198
29.1875
33.4108
35.4338
36.2549
36.4405
36.137
35.1113
32.7438
28.1764
21.4004
15.3931
16.8429
35.564
129.785
141.74
148.337
154.42
160.73
154.9
140.299
35.3027
16.7045
15.248
21.2228
29.04
36.9307
43.832
48.8699
51.4165
51.0577
47.6564
41.2945
32.36
22.5382
15.3268
16.1433
31.6431
119.203
152.354
156.267
180.472
225.262
203.54
153.949
36.585
17.1799
14.2548
18.1085
22.6738
27.5828
31.1636
33.23
34.3938
35.3087
36.4359
37.7933
37.7911
33.1656
24.7277
16.3683
16.5338
25.4364
35.6224
44.3078
48.7385
49.5188
48.9665
48.0461
46.6564
44.2587
40.2014
34.1323
26.574
19.1876
14.4872
17.6246
40.6999
150.437
167.859
192.885
196.186
168.408
138.063
31.331
16.0442
15.3404
22.784
32.8402
41.6625
47.7756
51.2524
52.3094
51.0137
47.2921
40.9953
32.2286
22.5049
15.315
16.1209
31.5241
118.732
158.887
167.597
187.561
193.281
165.778
120.685
31.4228
16.0528
15.2279
22.3311
32.5508
43.7107
54.4286
63.1394
67.5042
65.5988
57.9838
46.8074
34.2262
22.7717
15.199
15.8022
30.0213
117.235
169.442
163.527
169.095
183.64
185.924
68.0743
24.274
14.6323
15.5704
22.4478
29.9278
36.5302
41.5599
44.9092
46.9919
48.3383
49.1316
48.4955
44.1765
35.573
25.4264
16.5369
16.6489
25.8822
37.0391
48.0341
56.1042
59.8886
60.6267
59.7293
57.5457
53.7538
47.8813
39.8268
30.3959
21.3634
15.0554
16.2575
32.8091
128.729
160.677
169.285
171.155
158.976
118.319
29.8878
15.7639
15.1989
22.8354
34.3676
46.8154
57.6449
65.2061
67.9102
64.9349
57.1992
46.3623
34.0865
22.7494
15.1911
15.7729
29.839
116.85
174.49
176.351
201.087
211.388
177.524
117.236
29.7909
15.7412
15.1439
22.6202
34.1323
47.9387
62.4861
75.155
81.2662
77.2702
65.1811
49.8249
34.8946
22.7499
15.1052
15.6157
29.1876
113.956
180.442
181.867
175.378
164.137
159.646
39.5097
17.3287
14.374
19.1935
27.2261
36.2339
44.4667
50.9636
55.5108
58.3541
59.7397
59.3402
55.7977
47.8948
36.9915
25.8729
16.6519
16.7332
26.1951
37.9672
50.2772
60.5528
66.7292
68.9495
68.392
65.6786
60.7445
53.3084
43.4981
32.4343
22.1495
15.0782
15.7593
29.8729
113.984
179.696
184.407
180.535
172.776
107.895
28.8638
15.5819
15.1173
22.7938
34.9344
49.5975
64.2062
75.4996
79.8024
75.295
63.9027
49.3511
34.8234
22.7687
15.1104
15.5715
28.8156
109.904
179.963
182.896
190.849
196.092
181.167
109.158
28.7875
15.559
15.0872
22.685
34.7821
50.2321
67.6049
83.1036
90.0975
84.5745
69.366
51.2744
35.1086
22.7099
15.0539
15.4894
28.4968
107.475
187.346
201.983
189.43
172.467
123.231
31.9989
16.0724
14.9562
21.2881
30.6054
40.9555
50.5977
58.3436
63.802
67.0469
68.0519
66.1809
60.262
50.1505
37.9242
26.1867
16.736
16.8041
26.446
38.6597
51.7695
63.2356
70.7985
74.0942
73.965
71.0448
65.3901
56.8345
45.7086
33.486
22.4744
15.0773
15.4873
28.024
95.6488
196.764
187.156
183.284
192.096
93.5395
27.6981
15.4309
15.1045
22.8381
35.2579
51.0523
67.7774
80.8744
85.7403
80.7639
67.6144
50.9397
35.2204
22.8314
15.0979
15.418
27.6651
94.8785
194.04
194.243
178.886
184.492
197.515
93.6882
27.6432
15.4151
15.0883
22.7819
35.1754
51.4674
70.1548
86.2114
92.7236
87.0568
71.1788
52.0148
35.3101
22.7737
15.0615
15.3716
27.4916
93.2919
202.124
199.746
186.915
191.574
98.8423
28.7446
15.5913
15.0405
22.1466
32.5563
44.1179
54.9118
63.557
69.5418
72.8501
73.335
70.3322
62.9877
51.6597
38.6217
26.4385
16.8067
16.8771
26.6834
39.2401
52.7981
64.7166
72.7925
76.6165
76.8458
74.018
68.1716
59.1208
47.2647
34.3317
22.8478
15.1838
15.2786
25.772
69.168
224.203
172.013
171.89
221.88
69.0307
25.7095
15.2706
15.2135
23.1253
35.7934
52.022
68.9779
81.2861
85.4645
81.2436
68.9113
51.9816
35.7857
23.1247
15.2082
15.2601
25.694
69.5276
244.702
184.569
172.146
173.348
227.961
69.0016
25.6769
15.2615
15.2057
23.0977
35.7642
52.3621
70.6696
84.7033
89.6451
85.1093
71.2079
52.6451
35.8181
23.0812
15.1846
15.2315
25.5843
68.6154
238.623
175.203
173.204
215.933
70.1077
25.9824
15.302
15.1607
22.7084
33.863
46.3168
57.8432
66.8767
72.9174
76.0077
76.0326
72.4252
64.5148
52.7051
39.2068
26.6769
16.8795
16.9699
26.948
39.7541
53.3616
64.9886
72.7803
76.5996
77.0622
74.6194
69.2443
60.5907
48.8108
35.5817
23.6446
15.5472
15.0874
22.2598
39.4418
69.4983
92.3917
92.6003
69.8699
39.5797
22.2794
15.0967
15.5815
23.9095
36.9304
52.9482
68.0709
77.4443
80.2905
77.4338
68.0543
52.9429
36.9352
23.9113
15.5775
15.0879
22.2628
39.6897
71.1918
98.4161
108.397
98.3112
71.0927
39.6595
22.2665
15.0918
15.5785
23.8988
36.9441
53.2775
69.2616
79.4103
82.5175
79.5759
69.5157
53.4246
36.9657
23.8828
15.5627
15.0707
22.1992
39.3535
69.4543
92.0519
91.7175
69.2212
39.5143
22.2905
15.079
15.5257
23.5702
35.3217
48.233
59.7646
68.382
73.8716
76.48
76.1824
72.5079
64.8313
53.2849
39.7255
26.9424
16.9722
17.1089
27.2778
40.1554
53.1756
63.5928
70.2798
73.5297
73.9992
72.1286
67.9028
60.8284
50.466
37.7479
25.3809
16.4625
14.9597
18.1687
22.2356
25.5795
27.1526
27.1664
25.6151
22.2702
18.1862
14.9731
16.5042
25.6717
39.021
53.5098
64.6399
70.347
71.9588
70.3454
64.64
53.5176
39.0315
25.6753
16.5011
14.9655
18.1727
22.2774
25.7305
27.543
28.0703
27.5489
25.742
22.289
18.1806
14.9709
16.5043
25.6737
39.075
53.8333
65.3979
71.3439
73.0214
71.4033
65.5028
53.9099
39.0858
25.6607
16.4929
14.9577
18.1498
22.2074
25.5477
27.0994
27.0895
25.5324
22.2149
18.1512
14.9409
16.4411
25.3279
37.5752
50.0894
60.307
67.3708
71.6668
73.632
73.2571
70.0931
63.478
53.1153
40.1314
27.2731
17.1111
17.3407
27.7016
40.2142
51.5982
59.7201
64.4704
66.5445
66.6678
65.3092
62.5456
57.9828
50.8359
40.7084
28.9613
18.7826
15.0743
14.8878
14.9769
15.0967
15.1674
15.1683
15.0987
14.9795
14.8916
15.0855
18.8393
29.2869
41.6285
51.9448
58.1041
60.9335
61.7321
60.9328
58.1048
51.9514
41.6395
29.2925
18.8374
15.0799
14.8828
14.9723
15.1012
15.1915
15.2235
15.1951
15.1073
14.9792
14.8896
15.0862
18.8427
29.3042
41.7203
52.2031
58.4965
61.3712
62.1834
61.391
58.5342
52.2406
41.7305
29.2957
18.8348
15.0792
14.8798
14.9634
15.0808
15.1496
15.1487
15.0782
14.959
14.869
15.055
18.7608
28.9103
40.5698
50.5887
57.6865
62.2618
65.0639
66.467
66.388
64.3564
59.6445
51.5547
40.1952
27.6978
17.3429
17.7589
28.1893
39.3196
47.606
52.4395
54.6873
55.2898
54.9224
53.9395
52.4125
50.1526
46.6814
41.3129
33.8297
25.433
18.2656
16.0037
15.0964
14.7067
14.5647
14.5637
14.7037
15.0923
16.0008
18.2718
25.5008
33.995
41.3635
46.155
48.7166
49.9227
50.2774
49.9219
48.7157
46.1561
41.3684
34.0004
25.5015
18.2686
15.9945
15.0827
14.6884
14.5339
14.4953
14.5363
14.6927
15.0884
16.0013
18.2769
25.5134
34.0323
41.4509
46.2907
48.8739
50.0857
50.4437
50.092
48.8861
46.3059
41.4607
34.0316
25.5082
18.2717
15.9967
15.0852
14.6943
14.5525
14.5522
14.6929
15.0811
15.9865
18.2452
25.4034
33.7721
41.2117
46.5518
50.0204
52.2917
53.8339
54.8323
55.2153
54.6287
52.3968
47.5786
39.306
28.1867
17.7612
18.571
28.4461
36.1848
40.0266
41.4084
41.6012
41.2988
40.806
40.2173
39.5188
38.6243
37.3683
35.4769
32.6077
28.6463
24.2119
21.6218
20.3359
19.7217
19.4762
19.4743
19.7162
20.3275
21.6116
24.1992
28.6133
32.4777
35.1319
36.7122
37.5915
38.0352
38.1709
38.0349
37.5911
36.712
35.1326
32.4793
28.614
24.1966
21.6038
20.3111
19.6826
19.404
19.3265
19.4057
19.686
20.3159
21.6101
24.2052
28.6284
32.5055
35.172
36.7592
37.6409
38.0855
38.222
38.0872
37.6441
36.7636
35.1765
32.5083
28.6288
24.205
21.6126
20.3253
19.7113
19.4672
19.4672
19.711
20.3234
21.6073
24.1941
28.6214
32.5719
35.433
37.3226
38.581
39.4794
40.1822
40.775
41.2718
41.5783
41.39
40.0132
36.1773
28.4449
18.5735
20.3019
27.0638
28.9731
28.9351
28.5069
28.0824
27.7348
27.4529
27.2068
26.9633
26.6862
26.331
25.8382
25.1304
24.142
22.9323
21.8842
21.1868
20.7919
20.6172
20.6154
20.7863
21.1766
21.8669
22.9006
24.0804
25.0179
25.6548
26.0583
26.3012
26.4307
26.4715
26.431
26.3018
26.0592
25.656
25.0192
24.081
22.899
21.8604
21.1607
20.7524
20.5476
20.4864
20.5485
20.7542
21.1633
21.864
22.904
24.088
25.0286
25.6673
26.0714
26.3144
26.4439
26.4846
26.444
26.3147
26.0719
25.668
25.0296
24.0895
22.9069
21.8708
21.1787
20.7868
20.6146
20.6153
20.7889
21.1828
21.8791
22.926
24.1343
25.1214
25.8288
26.3219
26.6777
26.9557
27.2
27.4468
27.7294
28.0778
28.5032
28.9324
28.9718
27.0646
20.3052
23.5496
20.6496
18.8874
18.0322
17.5811
17.3268
17.1733
17.0724
16.9974
16.9319
16.8643
16.7846
16.6835
16.5525
16.387
16.194
15.9982
15.8371
15.729
15.6756
15.6742
15.7248
15.8297
15.9865
16.1761
16.3599
16.5131
16.6283
16.709
16.7614
16.7907
16.8002
16.7912
16.7624
16.7105
16.6302
16.5153
16.3621
16.1776
15.9861
15.825
15.7124
15.6485
15.6282
15.649
15.7134
15.8264
15.9878
16.1797
16.3646
16.518
16.633
16.7133
16.7653
16.7941
16.8033
16.7939
16.7649
16.7127
16.6322
16.5172
16.364
16.18
15.9901
15.833
15.7278
15.6769
15.6781
15.7312
15.8392
16.0001
16.1958
16.3886
16.5541
16.6851
16.7862
16.8659
16.9334
16.9989
17.0739
17.1748
17.3283
17.5828
18.0341
18.8898
20.6529
23.5547
22.2654
18.7038
16.2665
14.494
13.4082
12.808
12.4898
12.3286
12.2508
12.2153
12.2002
12.1942
12.1921
12.191
12.19
12.1885
12.1866
12.1843
12.1818
12.1794
12.1771
12.1751
12.1734
12.1719
12.1709
12.1702
12.17
12.1702
12.1708
12.1718
12.173
12.1743
12.1756
12.1766
12.1774
12.1778
12.1779
12.1779
12.1779
12.1778
12.1777
12.1775
12.1771
12.1765
12.1757
12.1748
12.1739
12.1731
12.1724
12.172
12.172
12.1724
12.1731
12.1742
12.1756
12.1772
12.1789
12.1806
12.1824
12.1842
12.1862
12.1883
12.1907
12.1931
12.1956
12.1981
12.2004
12.2026
12.2043
12.2054
12.2058
12.2054
12.2043
12.2028
12.2016
12.202
12.2067
12.2212
12.2566
12.3345
12.4963
12.8154
13.4167
14.5038
16.2781
18.7177
22.2833
18.4476
21.3013
19.053
15.3109
13.7468
13.0208
12.6735
12.5166
12.4505
12.4252
12.4175
12.4169
12.4185
12.4195
12.4191
12.4171
12.4139
12.4105
12.4076
12.4056
12.4045
12.4037
12.403
12.4023
12.4015
12.4011
12.4013
12.4022
12.4039
12.4062
12.409
12.412
12.415
12.4175
12.4194
12.4205
12.4211
12.4215
12.4221
12.4231
12.4243
12.4253
12.4257
12.4252
12.4239
12.422
12.4196
12.4171
12.4148
12.4132
12.4123
12.412
12.4122
12.4128
12.4139
12.4155
12.4173
12.419
12.4205
12.4217
12.4227
12.4236
12.4245
12.4252
12.4257
12.4258
12.4256
12.4255
12.4256
12.4255
12.4248
12.4229
12.4198
12.4161
12.4123
12.4098
12.4107
12.4195
12.4466
12.5152
12.6752
13.0254
13.754
15.3207
19.0651
21.3153
18.4614
16.3254
19.4311
16.442
14.1122
13.999
14.051
14.1412
14.2168
14.2654
14.2949
14.3137
14.3275
14.3388
14.3463
14.3479
14.3444
14.3393
14.336
14.3356
14.3378
14.3417
14.3457
14.3477
14.347
14.3452
14.3438
14.3435
14.3444
14.3469
14.3511
14.3566
14.3625
14.3686
14.3749
14.3805
14.3843
14.386
14.3866
14.3872
14.3887
14.3913
14.3942
14.3956
14.394
14.3906
14.3859
14.3804
14.375
14.3711
14.3692
14.3689
14.3692
14.3688
14.3677
14.3669
14.3677
14.3707
14.3749
14.3793
14.3827
14.3846
14.3846
14.3831
14.3805
14.3762
14.3695
14.3616
14.3547
14.3497
14.3459
14.3417
14.3355
14.3272
14.3178
14.3083
14.2988
14.2876
14.2717
14.2458
14.2029
14.1357
14.0506
14.0027
14.1197
16.4525
19.4433
16.3372
15.2258
17.7732
14.9261
14.274
17.2172
20.8498
24.0353
25.9317
26.8511
27.2668
27.4472
27.5315
27.5948
27.6558
27.6749
27.6599
27.6643
27.6975
27.7471
27.8045
27.8659
27.9245
27.9577
27.9536
27.9382
27.926
27.915
27.9043
27.9001
27.9075
27.922
27.9347
27.9442
27.97
28.0199
28.0654
28.0875
28.0953
28.0979
28.0988
28.1056
28.1219
28.1286
28.1074
28.081
28.0581
28.031
28.0098
28.0043
28.0109
28.0237
28.0336
28.0294
28.0101
27.9849
27.9665
27.9725
28.0064
28.0512
28.0946
28.1227
28.1249
28.102
28.0643
28.0076
27.9212
27.8288
27.7519
27.6958
27.6537
27.6141
27.5646
27.5089
27.4594
27.4183
27.373
27.2935
27.1179
26.7161
25.827
23.9909
20.8266
17.2111
14.2783
14.9345
17.7837
15.2364
14.6448
16.8472
14.1982
14.4352
20.973
35.7689
62.2123
87.7399
104.11
111.345
113.317
112.664
111.947
113.401
114.223
114.486
117.347
121.131
124.519
127.351
129.976
133.341
135.817
135.137
133.971
133.351
132.369
130.883
129.972
130.084
130.119
128.991
126.036
123.634
125.125
129.039
131.186
132.306
133.433
133.521
132.88
133.501
133.79
131.795
130.972
130.836
129.659
129.055
129.455
129.814
130.321
130.886
130.862
130.262
129.07
127.32
126.414
127.738
130.209
133.188
136.519
138.273
137.451
135.446
132.17
126.493
121.834
119.227
117.764
116.421
114.729
112.533
110.599
109.64
109.476
109.554
109.231
107.334
101.184
86.3977
61.7861
35.6654
20.9564
14.4381
14.2052
16.8565
14.6545
14.3489
16.3815
13.8619
14.576
24.0749
59.9979
215.255
198.061
172.065
162.295
161.162
164.46
166.408
168.546
171.181
174.168
172.592
166.453
163.398
164.774
170.512
179.208
183.681
177.605
171.837
168.042
165.356
164.246
163.838
168.784
181.276
200.017
213.851
201.489
184.327
185.727
191.784
188.839
179.805
171.89
167.272
164.92
166.085
168.591
169.765
165.519
163.113
167.299
176.174
189.854
205.165
214.894
210.541
193.876
178.232
169.111
162.379
165.232
186.148
223.087
253.813
271.75
258.53
213.144
175.268
155.197
150.874
155.319
162.108
166.603
165.847
160.554
156.015
155.029
156.52
158.678
160.143
159.407
156.192
162.687
229.788
59.706
24.0609
14.5798
13.8683
16.3896
14.3578
14.2185
16.1861
13.7337
14.6514
25.5356
76.8587
156.467
172.983
186.087
186.433
183.783
181.158
170.926
162.36
159.696
175.669
197.319
204.76
216.356
229.864
240.017
248.509
254.334
255.931
258.165
251.123
238.306
216.592
199.516
221.687
258.79
268.638
252.427
204.044
193.372
213.123
212.013
211.495
227.003
247.651
219.419
194.471
188.197
189.525
198.48
197.549
195.565
207.908
217.063
209.292
201.924
194.74
196.595
212.967
218.639
189.199
175.043
203.697
231.318
189.978
171.021
166.874
174.021
200.246
244.004
194.016
161.424
152.798
156.69
165.097
170.469
168.642
161.286
155.104
152.769
153.331
155.853
160.027
171.691
203.999
175.098
77.0842
25.5467
14.6571
13.7399
16.1933
14.2267
14.1972
16.1686
13.7288
14.6627
25.6486
78.2688
163.038
166.087
171.127
188.159
210.064
199.156
169.559
155.893
148.044
155.624
207.856
235.858
234.686
239.538
248.149
260.743
278.622
227.5
175.129
160.22
163.765
184.683
243.813
247.356
233.867
234.823
237.616
211.722
205.738
173.849
158.317
151.095
144.631
145.346
160.283
205.196
257.902
229.886
241.232
229.863
183.543
156.648
151.131
158.025
165.045
161.168
158.164
157.408
163.217
178.983
231.607
204.545
167.253
169.213
171.676
169.631
160.733
157.25
178.822
241.087
245.821
197.071
172.581
162.493
161.704
171.658
173.531
164.617
156.401
153.927
158.548
174.921
196.141
184.069
165.997
78.5171
25.6604
14.6688
13.7346
16.175
14.2047
14.2707
16.3215
13.8479
14.6189
24.4428
63.2319
208.786
182.575
170.501
170.697
178.598
173.707
156.729
159.044
173.415
141.804
160.711
211.881
227.792
231.717
240.965
265.351
254.279
168.979
148.503
153.383
152.947
151.981
190.84
224.135
213.709
215.466
218.695
213.935
229.074
193.5
186.747
185.327
172.151
150.693
139.503
153.091
209.944
227.864
205.36
175.825
149.616
145.828
164.238
187.981
193.752
179.78
181.131
171.117
153.78
155.707
194.169
177.35
167.903
191.548
189.232
190.882
178.271
161.207
163.409
197.302
244.75
256.918
233.634
184.708
155.173
158.303
179.819
189.549
186.044
182.962
177.856
177.768
177.735
181.641
206.069
63.3537
24.4571
14.6251
13.8529
16.3267
14.2774
14.4538
16.7229
14.1857
14.5422
21.6095
38.5582
72.118
105.864
128.362
145.841
164.554
166.537
149.199
152.834
224.269
149.704
142.016
202.22
235.822
232.834
242.271
279.737
205.292
153.205
158.533
177.969
174.614
155.64
185.102
209.388
188.849
185.558
174.024
174.246
224.815
209.283
198.05
205.701
206.683
185.857
157.323
150.697
183.826
227.44
183.828
163.637
155.099
167.023
193.568
207.244
189.885
83.2898
45.4271
36.546
33.7422
32.8771
32.8766
33.3961
34.8959
39.1854
53.4618
142.352
188.127
170.391
166.765
189.217
223.556
233.182
226.551
218.426
202.886
163.381
173.288
207.69
212.285
197.149
184.367
152.471
130.669
107.775
73.0308
38.7119
21.6338
14.5481
14.1893
16.7266
14.4596
14.7751
17.5592
14.9846
14.5268
17.9603
22.2863
26.2134
28.755
30.4661
32.2964
35.6549
44.8031
81.1681
148.029
215.057
163.988
140.054
189.849
240.915
232.332
243.051
281.412
191.884
153.308
152.656
65.2728
42.6938
36.3323
33.934
32.7005
32.0459
31.8146
31.9812
32.8182
34.7039
39.059
53.2166
141.822
197.584
190.001
173.704
162.985
180.917
229.553
178.568
169.153
168.648
176.802
193.75
108.738
41.1954
25.8435
18.0678
16.731
16.3212
16.1878
16.1922
16.3056
16.59
17.2864
19.4588
34.4592
117.891
185.071
173.977
186.563
205.311
207.065
188.912
162.873
155.712
176.906
173.835
174.062
159.004
76.9859
43.7165
35.0135
31.5278
29.1863
26.3839
22.3459
17.977
14.5309
14.9861
17.5611
14.78
15.2353
19.1723
16.9607
14.8473
14.9842
15.1963
15.4199
15.6263
15.8358
16.1221
16.66
18.1471
26.5256
45.1086
154.566
171.588
147
175.99
245.736
231.463
242.391
277.911
221.161
234.096
53.6258
21.6968
18.0413
16.8994
16.4119
16.164
16.0427
16.0109
16.0638
16.2226
16.5483
17.2586
19.4213
34.2801
114.75
191.409
179.28
173.656
180.739
212.586
180.623
177.274
176.807
187.096
96.5669
30.991
17.8422
14.8625
14.5745
15.2698
15.3577
15.3745
15.4053
15.4657
15.5526
15.5737
14.9108
16.5907
33.7702
142.419
175.26
170.492
172.457
168.022
153.496
138.865
130.289
135.783
197.216
93.6437
39.2826
25.3206
17.8964
16.5231
16.0047
15.7015
15.4527
15.2103
14.9897
14.8485
16.9594
19.1718
15.2395
15.7269
21.6976
23.0067
18.7061
16.6517
15.7528
15.3667
15.237
15.2279
15.2624
15.2317
14.5826
15.0075
18.7592
37.8804
120.115
164.826
173.659
242.089
235.703
245.863
270.05
212.078
63.2411
21.3862
15.8057
15.895
15.722
15.5395
15.4168
15.3516
15.3361
15.3649
15.4335
15.5304
15.557
14.8946
16.5626
33.6134
140.626
185.884
174.678
166.264
172.786
182.729
187.611
186.223
129.443
31.8966
16.0368
14.4284
15.8461
19.5904
21.9617
22.9247
23.278
23.4018
23.3688
22.9904
21.645
18.3737
14.8695
18.998
48.7856
154.18
144.495
146.936
151.518
152.014
150.064
144.543
132.329
76.8714
29.489
17.5795
14.7809
14.5044
15.1543
15.2186
15.2429
15.3724
15.7563
16.6533
18.7056
22.9995
21.6936
15.7303
16.1009
23.5745
29.0288
28.3618
25.8392
24.2466
23.4452
23.08
22.8826
22.5761
21.681
19.3393
15.703
14.5724
18.4593
42.1995
141.154
193.294
225.335
249.932
249.032
252.873
254.218
40.3618
17.7454
15.7826
20.0407
22.5043
23.2619
23.4212
23.4233
23.4112
23.4046
23.3307
22.9475
21.6125
18.3543
14.8545
18.9706
48.6876
162.737
149.349
144.321
145.354
162.093
176.986
198.1
47.6547
18.6512
14.6457
18.1923
22.8185
28.076
32.2192
34.7175
35.886
36.0623
35.2218
32.8787
28.2632
21.4403
15.4206
16.8926
35.8338
127.907
135.119
144.866
166.476
185.397
180.723
178.723
80.8973
28.6755
15.6162
14.3009
15.7467
19.3929
21.6256
22.5269
22.9477
23.3928
24.2218
25.8218
28.3405
29.0049
23.5667
16.1038
16.3556
24.7349
33.2088
37.8669
37.8881
36.5783
35.5681
34.9109
34.2763
33.1592
30.8661
26.7561
21.0823
15.5726
14.9158
25.5965
72.9396
175.738
214.606
244.661
245.034
208.711
179.077
34.05
16.5824
15.5594
22.2271
29.1883
33.4045
35.4223
36.2405
36.4253
36.1229
35.101
32.7394
28.1778
21.4072
15.4062
16.8732
35.7598
128.731
136.946
142.133
147.651
153.003
149.659
140.229
35.478
16.7315
15.2587
21.2253
29.0348
36.9194
43.814
48.8448
51.3897
51.0396
47.6526
41.3016
32.3705
22.5497
15.3402
16.1689
31.7693
117.78
144.684
149.925
170.863
199.507
186.099
149.527
36.7917
17.2195
14.2679
18.1123
22.6727
27.5818
31.165
33.2314
34.3926
35.3036
36.427
37.7832
37.7872
33.1673
24.7251
16.3583
16.5256
25.4344
35.6261
44.3147
48.7441
49.5236
48.9735
48.056
46.6679
44.2686
40.2055
34.1287
26.5684
19.1888
14.4988
17.6622
40.9463
143.576
162.53
187.541
190.142
166.683
138.43
31.4149
16.0628
15.3505
22.7914
32.843
41.6594
47.7646
51.234
52.2883