/*--------------------------------*- C++ -*----------------------------------*\
| =========                 |                                                 |
| \\      /  F ield         | OpenFOAM: The Open Source CFD Toolbox           |
|  \\    /   O peration     | Version:  2406                                  |
|   \\  /    A nd           | Website:  www.openfoam.com                      |
|    \\/     M anipulation  |                                                 |
\*---------------------------------------------------------------------------*/
FoamFile
{
    version     2.0;
    format      ascii;
    arch        "LSB;label=32;scalar=64";
    class       volScalarField;
    location    "200";
    object      p;
}
// * * * * * * * * * * * * * * * * * * * * * * * * * * * * * * * * * * * * * //

dimensions      [0 2 -2 0 0 0 0];

internalField   nonuniform List<scalar> 
46980
(
97.544
97.5461
97.5493
97.5525
97.5541
97.5543
97.5539
97.5536
97.5536
97.5541
97.5549
97.5559
97.5567
97.5571
97.557
97.5566
97.5557
97.5545
97.5529
97.5513
97.5496
97.548
97.5466
97.5454
97.5446
97.5441
97.5439
97.5439
97.5443
97.5449
97.5458
97.5468
97.5479
97.5488
97.5495
97.5499
97.5499
97.5497
97.5493
97.5487
97.5481
97.5475
97.5469
97.5465
97.5463
97.5462
97.5464
97.5467
97.5472
97.5478
97.5484
97.549
97.5497
97.5503
97.551
97.5516
97.5522
97.5528
97.5534
97.5542
97.5552
97.5565
97.558
97.5596
97.5614
97.5632
97.5649
97.5662
97.5672
97.5677
97.5677
97.5671
97.566
97.5646
97.5629
97.5611
97.5594
97.558
97.557
97.5566
97.5566
97.5569
97.5567
97.5552
97.5519
97.5488
97.5467
97.5479
97.5484
97.5528
97.558
97.5594
97.5589
97.5577
97.5569
97.5565
97.5567
97.5574
97.5583
97.5592
97.5596
97.5597
97.5591
97.5581
97.5568
97.5552
97.5535
97.5519
97.5504
97.5492
97.5482
97.5475
97.5471
97.547
97.5471
97.5474
97.5479
97.5486
97.5496
97.5507
97.5517
97.5526
97.553
97.5531
97.5529
97.5524
97.5518
97.551
97.5503
97.5497
97.5492
97.549
97.5491
97.5494
97.5499
97.5506
97.5512
97.5519
97.5526
97.5532
97.5539
97.5545
97.5551
97.5556
97.5561
97.5567
97.5574
97.5583
97.5594
97.5608
97.5624
97.5641
97.5658
97.5673
97.5686
97.5696
97.5701
97.57
97.5695
97.5685
97.5671
97.5654
97.5637
97.5622
97.561
97.5603
97.5602
97.5608
97.5619
97.5624
97.5611
97.5558
97.5512
97.551
97.5533
97.5539
97.5626
97.5689
97.5694
97.5681
97.5657
97.5638
97.5625
97.5622
97.5626
97.5636
97.5648
97.5657
97.5659
97.5652
97.5637
97.5618
97.5597
97.5577
97.5558
97.5543
97.5533
97.5527
97.5524
97.5523
97.5524
97.5526
97.5528
97.5531
97.5537
97.5546
97.5562
97.5578
97.5593
97.56
97.56
97.5596
97.5588
97.5579
97.5568
97.5557
97.5547
97.554
97.5537
97.554
97.5548
97.5558
97.5569
97.5579
97.5588
97.5595
97.5603
97.561
97.5616
97.5622
97.5625
97.5628
97.5631
97.5633
97.5638
97.5647
97.566
97.5676
97.5693
97.5709
97.5725
97.5738
97.5747
97.5751
97.575
97.5743
97.5731
97.5716
97.5699
97.5682
97.5668
97.566
97.566
97.567
97.5687
97.5713
97.5729
97.5727
97.5663
97.5571
97.5567
97.5588
97.5596
97.5711
97.5783
97.5804
97.5827
97.5835
97.5853
97.5858
97.5861
97.5871
97.5896
97.5932
97.5959
97.5963
97.5946
97.5915
97.5877
97.5841
97.5808
97.5781
97.576
97.575
97.5753
97.5762
97.5772
97.5782
97.5792
97.5797
97.5796
97.5796
97.581
97.5845
97.5883
97.5912
97.592
97.5913
97.5898
97.5879
97.5859
97.5838
97.5818
97.58
97.5788
97.578
97.5786
97.5807
97.5834
97.5859
97.5879
97.5893
97.5905
97.5918
97.5933
97.5944
97.5951
97.5953
97.5948
97.5932
97.591
97.5892
97.5889
97.5901
97.5921
97.5943
97.5967
97.5985
97.5999
97.6008
97.6014
97.6011
97.5997
97.5977
97.5955
97.5931
97.5908
97.589
97.5881
97.5878
97.5876
97.5854
97.5858
97.5842
97.5826
97.5753
97.5632
97.5626
97.5638
97.5644
97.5779
97.586
97.591
97.6032
97.618
97.6278
97.633
97.6348
97.6378
97.6454
97.6564
97.6644
97.6658
97.6615
97.6539
97.6451
97.6371
97.6311
97.6272
97.625
97.6253
97.6299
97.6352
97.64
97.6441
97.6471
97.6479
97.6465
97.6454
97.6488
97.658
97.6695
97.6766
97.677
97.6731
97.6667
97.6594
97.6532
97.6477
97.6422
97.6374
97.6348
97.6337
97.6341
97.6405
97.6492
97.6573
97.6644
97.6703
97.6749
97.6791
97.6825
97.6845
97.6861
97.6861
97.6826
97.6771
97.669
97.6603
97.6549
97.654
97.6548
97.6555
97.6578
97.6584
97.659
97.6594
97.6599
97.6587
97.6546
97.6493
97.6436
97.6384
97.6343
97.6321
97.6317
97.6316
97.6271
97.6171
97.606
97.5949
97.5905
97.5824
97.5683
97.5678
97.5673
97.5677
97.5823
97.5905
97.5966
97.615
97.6546
97.6554
97.6443
97.6416
97.6471
97.6622
97.6833
97.7007
97.7027
97.6936
97.68
97.664
97.6485
97.6366
97.6297
97.6281
97.6316
97.6389
97.6489
97.6594
97.6673
97.6703
97.6678
97.6633
97.6617
97.6701
97.6901
97.7185
97.735
97.7373
97.7302
97.7147
97.6958
97.6809
97.6691
97.6591
97.6516
97.6458
97.6449
97.6435
97.6544
97.6713
97.6894
97.7076
97.7241
97.7368
97.7432
97.7447
97.7451
97.7477
97.7495
97.739
97.7307
97.7207
97.7093
97.6989
97.6921
97.6887
97.6843
97.6799
97.678
97.6787
97.6799
97.6822
97.6784
97.6679
97.6546
97.6422
97.6326
97.6266
97.6244
97.6263
97.6312
97.6369
97.6537
97.6202
97.6006
97.5951
97.587
97.5718
97.5714
97.5689
97.5692
97.5841
97.5923
97.6003
97.6192
97.625
97.6427
97.6473
97.649
97.6556
97.6722
97.6978
97.7141
97.7107
97.7001
97.6868
97.6694
97.6493
97.6277
97.6086
97.5973
97.5952
97.6048
97.6189
97.6313
97.6382
97.6391
97.6355
97.6307
97.6286
97.6421
97.6756
97.7074
97.7325
97.7363
97.7262
97.7106
97.6938
97.6768
97.6581
97.6406
97.6319
97.6331
97.6277
97.6227
97.638
97.6633
97.6871
97.703
97.7122
97.7214
97.7274
97.7346
97.7431
97.7458
97.7452
97.738
97.7214
97.7022
97.6881
97.6771
97.6702
97.6657
97.6652
97.6701
97.6769
97.6816
97.6856
97.69
97.6872
97.6719
97.6531
97.6364
97.6243
97.6182
97.618
97.6227
97.6299
97.6364
97.6269
97.6203
97.6036
97.5968
97.5888
97.5732
97.573
97.5684
97.5686
97.5835
97.5916
97.5992
97.6171
97.6189
97.6337
97.6396
97.6473
97.6609
97.6823
97.7076
97.715
97.71
97.6981
97.6866
97.6712
97.6475
97.6184
97.5931
97.5771
97.574
97.5861
97.5973
97.6032
97.6074
97.6119
97.6178
97.615
97.6127
97.6305
97.6578
97.6954
97.7161
97.7153
97.7103
97.698
97.6835
97.6698
97.6502
97.6274
97.6117
97.6116
97.6079
97.6038
97.6242
97.6499
97.6674
97.6793
97.6914
97.7084
97.7182
97.7248
97.7326
97.737
97.7445
97.7351
97.7172
97.7025
97.6887
97.6708
97.6554
97.6456
97.6427
97.649
97.6627
97.6788
97.6899
97.6946
97.6932
97.6797
97.657
97.6364
97.6218
97.6164
97.6187
97.6262
97.6329
97.6329
97.6198
97.6196
97.6028
97.5959
97.588
97.5725
97.5724
97.5657
97.5659
97.5804
97.5883
97.5936
97.6097
97.6356
97.6407
97.6412
97.6508
97.671
97.7004
97.7125
97.7104
97.7111
97.6952
97.6802
97.665
97.6415
97.6132
97.5887
97.5736
97.5751
97.5858
97.592
97.6049
97.6141
97.6196
97.6315
97.6336
97.6289
97.6432
97.6664
97.7072
97.7223
97.7228
97.72
97.7045
97.6857
97.6692
97.6489
97.6238
97.6053
97.5998
97.5985
97.5972
97.6161
97.6379
97.6565
97.677
97.6925
97.7015
97.7027
97.7059
97.7048
97.7021
97.7102
97.7048
97.7001
97.6939
97.6894
97.6799
97.6605
97.6441
97.6385
97.642
97.6535
97.6717
97.691
97.7042
97.7029
97.6931
97.671
97.6495
97.6345
97.6342
97.6383
97.6427
97.6425
97.642
97.6379
97.6148
97.5974
97.5924
97.5846
97.5697
97.5696
97.561
97.5613
97.5749
97.5831
97.5875
97.5997
97.618
97.63
97.6369
97.648
97.6695
97.688
97.6922
97.6948
97.698
97.6847
97.6701
97.6572
97.6369
97.6147
97.5956
97.584
97.5864
97.5896
97.6056
97.6246
97.6333
97.642
97.6519
97.6463
97.6386
97.649
97.6641
97.6967
97.709
97.7089
97.7097
97.7041
97.6866
97.6669
97.6492
97.6285
97.6121
97.6067
97.6047
97.6027
97.6173
97.6351
97.656
97.6749
97.6707
97.6344
97.6099
97.5987
97.5921
97.5873
97.5867
97.5884
97.5912
97.596
97.6123
97.6533
97.6674
97.6546
97.6458
97.6484
97.6575
97.6721
97.6909
97.7098
97.7192
97.7082
97.6914
97.674
97.6572
97.6533
97.6529
97.6493
97.643
97.6371
97.6239
97.6039
97.5911
97.587
97.5788
97.5648
97.5647
97.5546
97.5548
97.5669
97.5754
97.5776
97.5798
97.5817
97.5845
97.5864
97.5908
97.5988
97.6102
97.6387
97.6704
97.6775
97.6691
97.6583
97.6504
97.6352
97.6187
97.6049
97.5969
97.6003
97.6089
97.6137
97.587
97.5731
97.5698
97.5698
97.5697
97.5704
97.5748
97.5828
97.5941
97.6021
97.6104
97.628
97.6656
97.6783
97.6647
97.6481
97.6335
97.622
97.6194
97.6166
97.6113
97.6209
97.6372
97.6482
97.6315
97.5969
97.5736
97.5631
97.5567
97.5526
97.5499
97.5485
97.5493
97.5509
97.5535
97.5593
97.5835
97.6354
97.6672
97.6632
97.6618
97.6694
97.683
97.6988
97.7109
97.7183
97.7195
97.7087
97.6861
97.6602
97.6204
97.6006
97.5948
97.5914
97.5892
97.5859
97.5834
97.5811
97.5789
97.5705
97.5581
97.558
97.5471
97.5471
97.5571
97.5665
97.5678
97.5662
97.5636
97.5623
97.5627
97.5657
97.5713
97.58
97.5927
97.6116
97.6448
97.6551
97.6514
97.6457
97.6344
97.6207
97.6116
97.6083
97.6183
97.6213
97.569
97.5455
97.5413
97.5406
97.5406
97.5421
97.5444
97.5474
97.5518
97.5565
97.5615
97.5674
97.5764
97.5995
97.6387
97.661
97.6511
97.6401
97.6342
97.6362
97.6322
97.6227
97.6281
97.6376
97.6128
97.5808
97.5627
97.5566
97.551
97.5459
97.5433
97.5418
97.541
97.541
97.5414
97.5416
97.5416
97.5487
97.5804
97.6556
97.6841
97.681
97.685
97.6956
97.7005
97.7015
97.7033
97.7074
97.6958
97.6516
97.612
97.5903
97.5791
97.5718
97.5678
97.5664
97.5671
97.5694
97.5709
97.5697
97.5604
97.5502
97.5503
97.5396
97.5391
97.5446
97.5534
97.5556
97.5548
97.5534
97.5529
97.5537
97.5563
97.5614
97.5713
97.5803
97.587
97.6057
97.6313
97.6538
97.6492
97.6355
97.6197
97.6134
97.6177
97.6221
97.5722
97.5351
97.5282
97.5309
97.5327
97.5341
97.5362
97.5387
97.5415
97.5446
97.5476
97.5509
97.5545
97.5596
97.5691
97.5927
97.6453
97.6589
97.654
97.6507
97.6585
97.6527
97.6406
97.6375
97.6252
97.5808
97.5628
97.554
97.548
97.5428
97.5393
97.5374
97.5362
97.5356
97.5357
97.5362
97.5372
97.5382
97.5413
97.5547
97.6038
97.6849
97.6964
97.6934
97.6908
97.6847
97.6851
97.6865
97.6811
97.6429
97.6095
97.5911
97.5842
97.5745
97.5638
97.5589
97.557
97.5569
97.5579
97.5586
97.5563
97.5476
97.5419
97.5427
97.5333
97.5329
97.5357
97.54
97.5422
97.5427
97.5427
97.5431
97.5444
97.5469
97.5508
97.5577
97.5669
97.5764
97.5869
97.605
97.6447
97.6571
97.643
97.6204
97.6119
97.6208
97.6223
97.5577
97.5312
97.5263
97.5269
97.5273
97.5282
97.5298
97.532
97.5345
97.5374
97.5403
97.5434
97.5468
97.5515
97.5587
97.5697
97.6039
97.6608
97.6679
97.6639
97.6742
97.6678
97.6576
97.6447
97.5931
97.5652
97.556
97.5477
97.542
97.5382
97.5358
97.5344
97.5334
97.533
97.5331
97.5336
97.5349
97.537
97.5403
97.5505
97.5868
97.6769
97.6894
97.6761
97.6702
97.6664
97.6627
97.6608
97.6383
97.6074
97.5942
97.5825
97.5718
97.5616
97.554
97.5499
97.5477
97.5466
97.5461
97.5454
97.543
97.5385
97.5357
97.5362
97.5281
97.5282
97.5303
97.5329
97.5347
97.5357
97.5363
97.5373
97.5388
97.5411
97.5444
97.5492
97.5566
97.568
97.5796
97.5881
97.6183
97.6637
97.6643
97.6367
97.6223
97.631
97.6281
97.5604
97.5329
97.5273
97.5263
97.5256
97.5258
97.5269
97.5287
97.5309
97.5334
97.5361
97.539
97.5422
97.5468
97.5537
97.5632
97.5919
97.6662
97.6717
97.6637
97.6644
97.6671
97.6646
97.6531
97.587
97.5615
97.5528
97.5444
97.539
97.536
97.5342
97.5331
97.5325
97.5321
97.5321
97.5325
97.5338
97.5363
97.5399
97.5483
97.5778
97.6486
97.6655
97.6584
97.6569
97.6493
97.6395
97.6377
97.608
97.5911
97.5824
97.5695
97.56
97.5527
97.5476
97.5442
97.5418
97.5402
97.5391
97.5377
97.5357
97.5329
97.5309
97.531
97.5241
97.5244
97.5264
97.5286
97.5303
97.5315
97.5326
97.5338
97.5353
97.5374
97.5401
97.5439
97.5493
97.5581
97.5709
97.579
97.6011
97.6616
97.666
97.6491
97.6403
97.6446
97.6301
97.5619
97.5345
97.5289
97.527
97.5259
97.5258
97.5265
97.5279
97.5297
97.5319
97.534
97.5364
97.5393
97.5438
97.5507
97.5594
97.5852
97.6453
97.6525
97.6465
97.6488
97.6561
97.6543
97.6391
97.5824
97.5591
97.5511
97.5426
97.5373
97.5345
97.5331
97.5325
97.5321
97.5318
97.5316
97.5318
97.533
97.5356
97.5395
97.5467
97.5724
97.6313
97.6462
97.6437
97.6436
97.6453
97.6392
97.6111
97.5889
97.5833
97.5726
97.5602
97.5525
97.5472
97.5432
97.5403
97.5381
97.5363
97.5348
97.5332
97.5313
97.5289
97.5269
97.5268
97.521
97.5213
97.5232
97.5255
97.5274
97.5288
97.5301
97.5314
97.5329
97.5347
97.537
97.54
97.5443
97.5511
97.5617
97.5707
97.5928
97.6476
97.6485
97.6352
97.6328
97.6363
97.6205
97.5609
97.5362
97.5307
97.528
97.5265
97.5263
97.527
97.5282
97.5296
97.5312
97.5327
97.5344
97.5369
97.5413
97.5481
97.5556
97.5785
97.6285
97.6344
97.632
97.637
97.6387
97.635
97.6226
97.5773
97.5569
97.5496
97.541
97.5358
97.5332
97.5321
97.5318
97.5317
97.5315
97.5311
97.5311
97.5322
97.5349
97.5392
97.546
97.5695
97.6202
97.6332
97.6368
97.6406
97.6459
97.6444
97.5984
97.5798
97.5738
97.5615
97.5524
97.5468
97.5429
97.5398
97.5374
97.5353
97.5335
97.5318
97.53
97.528
97.5256
97.5237
97.5236
97.5186
97.5189
97.5207
97.5229
97.525
97.5267
97.5281
97.5295
97.5309
97.5325
97.5344
97.5368
97.5405
97.5465
97.5559
97.5642
97.584
97.6282
97.6361
97.6248
97.6216
97.624
97.6107
97.5598
97.5379
97.5325
97.5289
97.527
97.5267
97.5273
97.5284
97.5295
97.5305
97.5314
97.5327
97.5349
97.5391
97.5459
97.5532
97.5743
97.6182
97.6244
97.6254
97.631
97.6369
97.6301
97.6157
97.5749
97.5557
97.5483
97.5396
97.5344
97.5319
97.531
97.5309
97.5311
97.5309
97.5304
97.5304
97.5315
97.5343
97.5392
97.5462
97.5684
97.6156
97.6319
97.6394
97.6425
97.6436
97.6347
97.5917
97.572
97.5636
97.5534
97.5467
97.5424
97.5393
97.5369
97.5348
97.533
97.5312
97.5294
97.5274
97.5252
97.5228
97.5211
97.5209
97.5166
97.5169
97.5185
97.5208
97.5229
97.5248
97.5264
97.5277
97.529
97.5304
97.532
97.5341
97.5373
97.5428
97.5517
97.5597
97.5773
97.6142
97.6306
97.6225
97.6198
97.6232
97.6031
97.5593
97.5401
97.5343
97.5298
97.5274
97.5268
97.5274
97.5284
97.5292
97.5297
97.5302
97.5311
97.5332
97.5374
97.5445
97.5522
97.572
97.613
97.6293
97.6298
97.6304
97.6398
97.6372
97.6136
97.5738
97.5553
97.5474
97.5386
97.5333
97.5307
97.5298
97.5299
97.5302
97.5301
97.5297
97.5297
97.5309
97.5341
97.5395
97.5467
97.5669
97.6101
97.6357
97.6396
97.6407
97.6443
97.6254
97.585
97.5661
97.5574
97.5482
97.5424
97.5388
97.5362
97.5342
97.5324
97.5307
97.529
97.5272
97.5252
97.5229
97.5205
97.5189
97.5188
97.515
97.5152
97.5168
97.5189
97.5211
97.523
97.5246
97.5259
97.5272
97.5284
97.5297
97.5316
97.5346
97.5399
97.5487
97.5571
97.5716
97.6013
97.6223
97.6102
97.6094
97.6188
97.5925
97.558
97.5427
97.5362
97.5306
97.5276
97.5267
97.5271
97.5279
97.5284
97.5287
97.5289
97.5297
97.5319
97.5364
97.5439
97.5518
97.5676
97.6004
97.6275
97.6221
97.6168
97.6274
97.6336
97.6038
97.5705
97.5553
97.547
97.5378
97.5323
97.5296
97.5287
97.5288
97.5292
97.5292
97.5289
97.529
97.5305
97.534
97.5401
97.5474
97.5631
97.5969
97.6294
97.625
97.6258
97.636
97.6104
97.5769
97.5618
97.5531
97.5443
97.5389
97.5356
97.5334
97.5316
97.5301
97.5286
97.5269
97.5251
97.5231
97.5208
97.5186
97.5171
97.517
97.5136
97.5138
97.5153
97.5173
97.5193
97.5212
97.5227
97.524
97.5252
97.5263
97.5276
97.5294
97.5324
97.5377
97.547
97.5561
97.5669
97.5842
97.5971
97.6038
97.6034
97.5939
97.5767
97.5569
97.5455
97.538
97.5313
97.5276
97.5264
97.5265
97.527
97.5273
97.5274
97.5276
97.5285
97.5308
97.5356
97.5439
97.5525
97.5639
97.5831
97.5998
97.6112
97.6155
97.6148
97.6032
97.586
97.567
97.5559
97.5468
97.537
97.5313
97.5285
97.5275
97.5276
97.5279
97.528
97.5279
97.5282
97.5299
97.5339
97.541
97.5488
97.5602
97.5799
97.5984
97.6113
97.6137
97.6049
97.5887
97.5702
97.5595
97.5504
97.5413
97.5359
97.5328
97.5307
97.5291
97.5277
97.5263
97.5248
97.5231
97.5211
97.519
97.5169
97.5155
97.5155
97.5125
97.5127
97.514
97.5158
97.5177
97.5193
97.5207
97.522
97.5231
97.5242
97.5255
97.5273
97.5302
97.5356
97.5454
97.5551
97.5624
97.5693
97.5733
97.5767
97.5757
97.5699
97.5633
97.5549
97.5469
97.5388
97.5311
97.5272
97.5257
97.5255
97.5257
97.5259
97.526
97.5262
97.5271
97.5294
97.5344
97.5436
97.5526
97.5603
97.5684
97.5749
97.5816
97.5844
97.5831
97.577
97.5709
97.5631
97.5555
97.546
97.5356
97.5299
97.5272
97.5262
97.5262
97.5264
97.5265
97.5266
97.5272
97.529
97.5332
97.5411
97.5493
97.5571
97.5654
97.5722
97.5789
97.5803
97.5764
97.5716
97.5647
97.5576
97.5482
97.5385
97.5331
97.5301
97.5281
97.5266
97.5253
97.524
97.5226
97.5211
97.5193
97.5174
97.5155
97.5142
97.5141
97.5115
97.5117
97.5129
97.5145
97.516
97.5174
97.5186
97.5198
97.5209
97.5221
97.5234
97.525
97.5276
97.5326
97.5422
97.5526
97.5587
97.5628
97.5644
97.5647
97.5636
97.561
97.5574
97.5522
97.546
97.5373
97.5296
97.5259
97.5245
97.524
97.5239
97.5239
97.5241
97.5245
97.5254
97.5274
97.532
97.5412
97.5509
97.5571
97.5622
97.5656
97.5681
97.5692
97.5689
97.567
97.564
97.5593
97.5531
97.5429
97.5329
97.5278
97.5255
97.5246
97.5244
97.5244
97.5246
97.5249
97.5257
97.5274
97.5313
97.5391
97.5479
97.554
97.5591
97.5626
97.5654
97.5667
97.5663
97.5646
97.5607
97.5549
97.5446
97.535
97.5301
97.5274
97.5256
97.5241
97.5228
97.5216
97.5203
97.519
97.5175
97.5159
97.5143
97.5131
97.513
97.5106
97.5108
97.5119
97.5132
97.5144
97.5155
97.5165
97.5176
97.5187
97.5198
97.5212
97.5227
97.5247
97.5279
97.5342
97.5438
97.5502
97.5545
97.5567
97.5571
97.556
97.5535
97.5498
97.5449
97.5389
97.5311
97.5262
97.5238
97.5226
97.5219
97.5216
97.5215
97.5217
97.5223
97.5233
97.5249
97.5278
97.5337
97.5426
97.549
97.5541
97.5576
97.5599
97.5609
97.5604
97.5586
97.5554
97.5505
97.544
97.5347
97.5283
97.5251
97.5234
97.5225
97.522
97.5219
97.5221
97.5227
97.5236
97.525
97.5275
97.5327
97.5405
97.5465
97.5513
97.5549
97.5575
97.5586
97.5582
97.5561
97.552
97.5458
97.5363
97.53
97.5268
97.5247
97.5231
97.5217
97.5204
97.5192
97.518
97.5169
97.5157
97.5145
97.5132
97.5121
97.512
97.5098
97.51
97.5109
97.5119
97.5128
97.5137
97.5146
97.5155
97.5165
97.5177
97.519
97.5206
97.5223
97.5244
97.5274
97.5321
97.5363
97.5394
97.5412
97.5417
97.541
97.5394
97.5368
97.5335
97.5296
97.5257
97.5232
97.5215
97.5203
97.5194
97.519
97.5189
97.5192
97.5198
97.5209
97.5224
97.5244
97.5274
97.532
97.5363
97.5399
97.5426
97.5442
97.5449
97.5446
97.5431
97.5407
97.5372
97.5327
97.5279
97.5248
97.5226
97.5211
97.52
97.5194
97.5192
97.5194
97.5201
97.5211
97.5225
97.5243
97.527
97.531
97.5349
97.5383
97.5409
97.5426
97.5433
97.5429
97.5412
97.5382
97.534
97.5294
97.5264
97.5242
97.5224
97.5208
97.5194
97.5181
97.517
97.516
97.515
97.5141
97.5131
97.5121
97.5113
97.5111
97.5091
97.5094
97.5101
97.5109
97.5117
97.5125
97.5133
97.5142
97.5152
97.5163
97.5176
97.5192
97.521
97.5231
97.5255
97.5284
97.5312
97.5335
97.5349
97.5354
97.5349
97.5336
97.5316
97.5291
97.5263
97.5236
97.5215
97.5197
97.5183
97.5174
97.5169
97.5168
97.5171
97.5178
97.519
97.5207
97.5227
97.5253
97.5283
97.5315
97.5342
97.5364
97.5378
97.5384
97.538
97.5368
97.5348
97.532
97.5289
97.5257
97.5231
97.5209
97.5192
97.518
97.5173
97.517
97.5172
97.5179
97.519
97.5205
97.5225
97.5248
97.5275
97.5304
97.5331
97.5351
97.5365
97.537
97.5366
97.5353
97.5331
97.5303
97.5274
97.525
97.5229
97.521
97.5193
97.5179
97.5167
97.5156
97.5147
97.5138
97.5129
97.5121
97.5113
97.5106
97.5104
97.5086
97.5092
97.51
97.5109
97.5117
97.5125
97.5134
97.5143
97.5152
97.5164
97.5177
97.5194
97.5214
97.5238
97.5267
97.5299
97.5329
97.5354
97.5369
97.5374
97.5369
97.5354
97.5332
97.5303
97.5273
97.5243
97.5217
97.5196
97.518
97.517
97.5164
97.5163
97.5166
97.5174
97.5187
97.5206
97.5231
97.526
97.5294
97.5328
97.5359
97.5382
97.5398
97.5404
97.54
97.5387
97.5364
97.5335
97.53
97.5266
97.5234
97.5209
97.5189
97.5175
97.5167
97.5165
97.5167
97.5174
97.5186
97.5204
97.5226
97.5254
97.5285
97.5317
97.5346
97.5369
97.5385
97.5391
97.5386
97.5372
97.5348
97.5318
97.5287
97.5258
97.5233
97.5212
97.5195
97.518
97.5168
97.5157
97.5147
97.5138
97.5129
97.5121
97.5112
97.5104
97.5098
92.5944
92.5957
92.6004
92.6067
92.6109
92.6135
92.6153
92.6171
92.6192
92.6217
92.6244
92.6268
92.6285
92.6292
92.6286
92.6269
92.6241
92.6204
92.6158
92.6109
92.6058
92.6009
92.5964
92.5927
92.5899
92.5881
92.5872
92.5872
92.5881
92.5897
92.5919
92.5946
92.5973
92.5997
92.6014
92.6022
92.6023
92.6015
92.6001
92.5983
92.5962
92.5941
92.5921
92.5905
92.5894
92.5888
92.5888
92.5894
92.5904
92.5917
92.5932
92.5948
92.5966
92.5984
92.6004
92.6024
92.6046
92.6069
92.6095
92.6125
92.6161
92.6203
92.6251
92.6304
92.636
92.6416
92.6467
92.651
92.6541
92.656
92.6564
92.6555
92.6532
92.6499
92.6458
92.6413
92.6366
92.6321
92.628
92.6245
92.6216
92.6192
92.6164
92.6123
92.6062
92.6016
92.6007
92.5981
92.5947
92.6007
92.6102
92.615
92.6178
92.6198
92.6218
92.6241
92.6266
92.6294
92.6319
92.6338
92.6346
92.6341
92.6322
92.629
92.6249
92.62
92.6149
92.6097
92.6049
92.6007
92.5973
92.5948
92.5932
92.5924
92.5924
92.5932
92.5946
92.5967
92.5992
92.6021
92.6048
92.6068
92.6079
92.608
92.6072
92.6058
92.6038
92.6015
92.5992
92.597
92.5952
92.5941
92.5937
92.594
92.5949
92.5962
92.5977
92.5993
92.6009
92.6026
92.6044
92.6063
92.6082
92.6102
92.6123
92.6146
92.6174
92.6207
92.6248
92.6295
92.6348
92.6404
92.6459
92.651
92.6553
92.6586
92.6606
92.6611
92.6603
92.6581
92.6549
92.6508
92.6464
92.6418
92.6373
92.6331
92.6294
92.6263
92.6238
92.6208
92.6161
92.6067
92.6008
92.6049
92.6059
92.6019
92.6137
92.6227
92.6266
92.6306
92.6335
92.6365
92.6392
92.6421
92.6452
92.6484
92.6514
92.653
92.6528
92.6503
92.6459
92.6403
92.634
92.6277
92.6217
92.6164
92.6121
92.6092
92.6073
92.6063
92.6059
92.6061
92.6067
92.6077
92.6094
92.6121
92.616
92.6202
92.6237
92.6255
92.6257
92.6246
92.6226
92.6199
92.6167
92.6135
92.6104
92.6081
92.6068
92.6069
92.6082
92.6101
92.6123
92.6143
92.6161
92.6178
92.6196
92.6214
92.6231
92.6248
92.6263
92.6279
92.6296
92.6314
92.634
92.6376
92.6423
92.6478
92.6537
92.6597
92.6654
92.6702
92.6738
92.6759
92.6764
92.6755
92.6731
92.6698
92.6656
92.661
92.6564
92.652
92.6478
92.6438
92.6396
92.6366
92.6329
92.6294
92.6209
92.6086
92.6133
92.6154
92.6116
92.6281
92.6383
92.6467
92.6606
92.6745
92.6898
92.7006
92.7084
92.7152
92.7229
92.7309
92.7359
92.7359
92.7311
92.7228
92.7128
92.7023
92.6923
92.683
92.6751
92.6695
92.6675
92.6676
92.6685
92.6696
92.6707
92.6713
92.6712
92.6719
92.6759
92.6841
92.6934
92.7007
92.7038
92.7032
92.7004
92.6962
92.6913
92.686
92.6805
92.6757
92.6723
92.6703
92.671
92.675
92.6802
92.685
92.6888
92.6915
92.6935
92.6958
92.6981
92.6998
92.701
92.7017
92.7015
92.6999
92.6976
92.696
92.6974
92.7022
92.7091
92.7175
92.7267
92.7347
92.7411
92.7456
92.7485
92.7492
92.7472
92.7436
92.739
92.7334
92.7276
92.7218
92.7157
92.708
92.6967
92.6796
92.6662
92.6532
92.6458
92.6361
92.619
92.6234
92.6242
92.6206
92.641
92.6541
92.6709
92.7099
92.7653
92.8178
92.8545
92.877
92.8948
92.9164
92.9406
92.9551
92.9544
92.943
92.9254
92.9045
92.8831
92.864
92.8477
92.8333
92.8239
92.8256
92.832
92.8389
92.8443
92.8476
92.8474
92.8442
92.8435
92.8531
92.8749
92.9009
92.9177
92.9227
92.919
92.9092
92.8969
92.8856
92.8742
92.8619
92.8519
92.8462
92.8435
92.8431
92.8547
92.8699
92.8832
92.894
92.9026
92.9086
92.9133
92.9168
92.9179
92.9177
92.9171
92.9108
92.9014
92.8878
92.8737
92.8674
92.8705
92.8795
92.8933
92.9111
92.9239
92.9329
92.9388
92.9434
92.9448
92.9388
92.9292
92.9181
92.9072
92.8974
92.8889
92.8791
92.8613
92.8251
92.7691
92.7155
92.6776
92.6621
92.6496
92.6285
92.6328
92.6307
92.627
92.6501
92.6652
92.6887
92.7569
92.8928
92.9621
92.986
93.0077
93.0338
93.0707
93.115
93.1464
93.1484
93.1312
93.1056
93.072
93.0335
92.9978
92.9695
92.9475
92.9343
92.9355
92.9469
92.9611
92.971
92.973
92.9668
92.9583
92.9581
92.9799
93.0268
93.0881
93.1259
93.1375
93.1316
93.1097
93.0811
93.0571
93.0343
93.0097
92.9882
92.9731
92.9704
92.97
92.993
93.024
93.0531
93.0785
93.1012
93.1178
93.124
93.1238
93.1215
93.1193
93.1185
93.1
93.0845
93.0652
93.0441
93.0311
93.029
93.0362
93.0509
93.07
93.0874
93.1011
93.109
93.1146
93.1117
93.095
93.0717
93.048
93.028
93.0137
93.0041
92.9957
92.9806
92.9512
92.8978
92.7647
92.6954
92.6734
92.659
92.6353
92.6395
92.6336
92.6299
92.6542
92.6708
92.7013
92.7877
92.9001
92.9853
93.0236
93.0489
93.0782
93.1229
93.1789
93.2134
93.21
93.1894
93.1642
93.1279
93.0776
93.0189
92.9644
92.9228
92.8979
92.8935
92.8963
92.9009
92.9068
92.9099
92.9109
92.9088
92.9133
92.9507
93.0233
93.0979
93.1503
93.1573
93.1448
93.1274
93.1096
93.0898
93.0602
93.0238
92.9966
92.9876
92.9783
92.9744
93.0066
93.0479
93.0783
93.0882
93.088
93.0918
93.0972
93.1111
93.1288
93.1332
93.1342
93.1158
93.0809
93.0427
93.0176
93.0064
93.0075
93.0191
93.0441
93.083
93.1235
93.1516
93.1661
93.1735
93.171
93.1453
93.1097
93.0763
93.0497
93.0327
93.0245
93.0201
93.0097
92.982
92.8985
92.7868
92.7064
92.6788
92.6632
92.6383
92.6426
92.6325
92.6287
92.6531
92.6696
92.6999
92.7867
92.8945
92.9726
93.01
93.0424
93.0848
93.1436
93.2056
93.2371
93.234
93.206
93.178
93.1439
93.0902
93.0227
92.9583
92.9058
92.8729
92.8577
92.8305
92.807
92.8046
92.8215
92.8569
92.8759
92.8871
92.9335
92.997
93.0824
93.1235
93.1271
93.1279
93.1209
93.1114
93.1022
93.0769
93.0347
92.9964
92.9861
92.9759
92.9714
93.0089
93.0412
93.0501
93.0496
93.0544
93.0655
93.0678
93.0729
93.0831
93.0901
93.1105
93.0929
93.058
93.0305
93.014
93.0021
92.9954
93.0021
93.0252
93.0649
93.1145
93.1626
93.1923
93.2024
93.2
93.1732
93.1254
93.0797
93.0439
93.0239
93.0168
93.0149
93.0022
92.9669
92.887
92.7873
92.7055
92.6774
92.6618
92.6371
92.6414
92.6272
92.6234
92.6466
92.6617
92.6849
92.7538
92.8771
92.948
92.9815
93.0205
93.0783
93.1479
93.1968
93.2267
93.2382
93.2031
93.1649
93.1307
93.0848
93.0267
92.9649
92.9094
92.8737
92.8328
92.7828
92.7728
92.7807
92.7986
92.8489
92.8877
92.8979
92.9401
92.9956
93.085
93.109
93.1219
93.1392
93.1387
93.1259
93.1147
93.0937
93.0536
93.0127
92.995
92.985
92.9786
93.0081
93.0266
93.0319
93.0417
93.0459
93.0196
92.9779
92.9569
92.9444
92.9364
92.9561
92.9525
92.9448
92.9451
92.9701
93.0054
93.0094
93.0134
93.0371
93.0741
93.1162
93.1599
93.1995
93.2259
93.226
93.1998
93.1455
93.0898
93.0455
93.0268
93.0183
93.0072
92.9816
92.9459
92.8762
92.7599
92.6912
92.6694
92.6551
92.6317
92.6359
92.6181
92.6144
92.6352
92.649
92.6651
92.7061
92.7715
92.8314
92.8727
92.9158
92.9744
93.0333
93.1007
93.1647
93.1938
93.1725
93.1376
93.107
93.0723
93.0304
92.9776
92.9233
92.8756
92.8078
92.7839
92.7844
92.7776
92.7859
92.8196
92.8349
92.8317
92.8587
92.8974
92.9645
92.9807
93.0051
93.0578
93.1148
93.1251
93.1159
93.103
93.0738
93.0388
93.0227
93.0094
92.9962
93.0143
93.0217
93.0221
93.0028
92.9301
92.8151
92.7457
92.7152
92.6988
92.6888
92.6895
92.6947
92.7025
92.7178
92.7629
92.8829
92.9866
93.0269
93.0573
93.097
93.1345
93.1679
93.203
93.238
93.2528
93.2202
93.1665
93.1078
93.0488
92.9975
92.9581
92.9244
92.8862
92.8444
92.7817
92.7134
92.6719
92.6565
92.6434
92.6223
92.6266
92.606
92.6021
92.6196
92.6319
92.6404
92.6542
92.6706
92.6888
92.7038
92.7225
92.7485
92.7876
92.8804
93.0139
93.1046
93.118
93.1011
93.0812
93.0561
93.0275
92.9857
92.9358
92.8838
92.8228
92.7618
92.6783
92.642
92.6328
92.637
92.6437
92.6501
92.6635
92.6841
92.7101
92.7282
92.7555
92.8122
92.9422
93.0593
93.0985
93.1016
93.0871
93.0625
93.0528
93.0364
93.0148
93.0198
93.0115
92.9593
92.8389
92.7237
92.6646
92.6386
92.6234
92.6139
92.6084
92.6067
92.6098
92.6158
92.6256
92.6444
92.7035
92.852
93.0103
93.0796
93.1209
93.1573
93.1908
93.2223
93.2424
93.2441
93.2209
93.1646
93.0747
92.9587
92.8293
92.7613
92.7342
92.7158
92.6992
92.6793
92.6616
92.6475
92.6394
92.6276
92.6098
92.6141
92.5922
92.5879
92.6018
92.6153
92.6201
92.6237
92.6265
92.6312
92.6378
92.6482
92.6636
92.686
92.7209
92.7874
92.9276
93.0364
93.0643
93.056
93.0364
93.0156
92.988
92.9512
92.9128
92.8228
92.6575
92.5942
92.58
92.5757
92.576
92.5806
92.5877
92.5967
92.6089
92.6219
92.636
92.654
92.6806
92.7431
92.886
93.0412
93.093
93.0961
93.0849
93.0837
93.0641
93.0332
93.0211
92.9644
92.8098
92.691
92.6396
92.6206
92.6079
92.5967
92.5906
92.5875
92.5867
92.5885
92.5925
92.5983
92.6062
92.6282
92.7074
92.9176
93.0883
93.1438
93.1806
93.2141
93.2267
93.2201
93.2022
93.1696
93.0757
92.9077
92.7779
92.7133
92.6822
92.6626
92.6498
92.6411
92.6349
92.6312
92.6273
92.6226
92.6093
92.5954
92.6
92.5783
92.5732
92.5798
92.5942
92.6003
92.6028
92.6047
92.608
92.6131
92.621
92.6332
92.6534
92.6733
92.6965
92.7585
92.8908
93.0246
93.0455
93.0223
92.9972
92.9795
92.9561
92.8816
92.6959
92.5888
92.563
92.5606
92.5597
92.5612
92.5657
92.5722
92.5801
92.5891
92.5984
92.6089
92.6216
92.6382
92.6648
92.736
92.9241
93.0735
93.1084
93.1092
93.1187
93.0948
93.0543
93.006
92.8628
92.6984
92.6403
92.6161
92.5999
92.5865
92.5774
92.5726
92.5704
92.5702
92.5723
92.5767
92.584
92.5943
92.6101
92.6492
92.778
93.0353
93.1532
93.1882
93.1995
93.1871
93.1716
93.1415
93.056
92.8812
92.7601
92.7052
92.6819
92.6605
92.6386
92.6262
92.6186
92.6138
92.6108
92.6078
92.6015
92.5871
92.5804
92.5859
92.566
92.5615
92.5628
92.5697
92.5746
92.5778
92.5804
92.5838
92.5887
92.5957
92.6055
92.621
92.6414
92.6632
92.6926
92.7626
92.9368
93.045
93.0279
92.9858
92.9661
92.9527
92.8534
92.6537
92.578
92.5587
92.5517
92.5472
92.5468
92.5497
92.555
92.5619
92.5698
92.5783
92.5882
92.6003
92.6165
92.6386
92.6749
92.7863
93.0122
93.1114
93.1253
93.1416
93.1157
93.0674
92.9595
92.7505
92.654
92.6225
92.5997
92.5833
92.5717
92.5644
92.5603
92.5586
92.5588
92.5612
92.5661
92.5746
92.5873
92.6039
92.6354
92.7345
92.9969
93.1338
93.1468
93.1465
93.1338
93.1056
93.0405
92.8863
92.7569
92.7079
92.6788
92.6542
92.6312
92.6136
92.6028
92.5954
92.5902
92.5863
92.5824
92.577
92.5698
92.5685
92.5735
92.556
92.5524
92.5522
92.5549
92.5579
92.5607
92.5634
92.5668
92.5713
92.5776
92.5861
92.5986
92.6166
92.6414
92.6681
92.7038
92.824
93.0194
93.0562
93.0075
92.976
92.9612
92.8495
92.6516
92.5797
92.5602
92.5496
92.5419
92.539
92.5401
92.544
92.5497
92.5567
92.5646
92.574
92.586
92.6026
92.6247
92.6549
92.7435
92.9849
93.1082
93.1195
93.121
93.1105
93.0724
92.943
92.7206
92.6404
92.613
92.5899
92.5734
92.5627
92.5562
92.5526
92.5512
92.5517
92.5545
92.5599
92.5691
92.5827
92.5999
92.6271
92.7093
92.9279
93.07
93.0969
93.1066
93.0865
93.0357
92.9249
92.77
92.7049
92.6784
92.6496
92.6269
92.6086
92.595
92.5854
92.5785
92.5733
92.5692
92.5655
92.5619
92.559
92.5592
92.5632
92.5478
92.5449
92.5445
92.5457
92.5474
92.5495
92.552
92.5552
92.5593
92.5649
92.5724
92.5829
92.5978
92.6194
92.6484
92.6759
92.758
92.9721
93.055
93.0353
93.012
92.9888
92.856
92.6536
92.5824
92.5633
92.5512
92.5418
92.5369
92.5362
92.5386
92.5431
92.549
92.5562