/*--------------------------------*- C++ -*----------------------------------*\
| =========                 |                                                 |
| \\      /  F ield         | OpenFOAM: The Open Source CFD Toolbox           |
|  \\    /   O peration     | Version:  2406                                  |
|   \\  /    A nd           | Website:  www.openfoam.com                      |
|    \\/     M anipulation  |                                                 |
\*---------------------------------------------------------------------------*/
FoamFile
{
    version     2.0;
    format      ascii;
    arch        "LSB;label=32;scalar=64";
    class       surfaceScalarField;
    location    "200";
    object      phi;
}
// * * * * * * * * * * * * * * * * * * * * * * * * * * * * * * * * * * * * * //

dimensions      [0 3 -1 0 0 0 0];

oriented        oriented;

internalField   nonuniform List<scalar> 
136311
(
-9.3726e-14
-9.47776e-14
6.30495e-11
-1.89372e-13
-2.03628e-13
1.25088e-10
-2.62946e-13
-3.01548e-13
1.66132e-10
-3.02629e-13
-4.0247e-13
1.97818e-10
-3.28086e-13
-4.52657e-13
2.22511e-10
-3.51304e-13
-4.5987e-13
2.39304e-10
-3.74576e-13
-4.45345e-13
2.49496e-10
-3.92437e-13
-4.33205e-13
2.55159e-10
-3.99737e-13
-4.29836e-13
2.58079e-10
-3.95096e-13
-4.36493e-13
2.59484e-10
-3.77601e-13
-4.51284e-13
2.60113e-10
-3.49196e-13
-4.70558e-13
2.60373e-10
-3.12891e-13
-4.88607e-13
2.60476e-10
-2.74448e-13
-5.00328e-13
2.60529e-10
-2.363e-13
-5.05979e-13
2.60576e-10
-1.99325e-13
-5.06503e-13
2.60638e-10
-1.65499e-13
-5.01743e-13
2.60724e-10
-1.34932e-13
-4.92587e-13
2.6083e-10
-1.10227e-13
-4.80811e-13
2.6095e-10
-9.07842e-14
-4.68262e-13
2.61075e-10
-7.86715e-14
-4.56281e-13
2.612e-10
-7.27356e-14
-4.46189e-13
2.61316e-10
-7.26934e-14
-4.39135e-13
2.61419e-10
-7.62361e-14
-4.35771e-13
2.61502e-10
-8.19338e-14
-4.35176e-13
2.61566e-10
-8.87285e-14
-4.36427e-13
2.6161e-10
-9.5941e-14
-4.39223e-13
2.61632e-10
-1.02619e-13
-4.43324e-13
2.61635e-10
-1.08843e-13
-4.48808e-13
2.61619e-10
-1.13099e-13
-4.56055e-13
2.61586e-10
-1.1482e-13
-4.66185e-13
2.61539e-10
-1.11622e-13
-4.80048e-13
2.61482e-10
-1.02301e-13
-4.96014e-13
2.61422e-10
-8.93166e-14
-5.10329e-13
2.61368e-10
-7.31453e-14
-5.19915e-13
2.61325e-10
-5.79315e-14
-5.24605e-13
2.61297e-10
-4.26527e-14
-5.25638e-13
2.61283e-10
-2.92437e-14
-5.24488e-13
2.61283e-10
-1.66018e-14
-5.2234e-13
2.61293e-10
-5.11808e-15
-5.2059e-13
2.6131e-10
5.85806e-15
-5.19459e-13
2.61333e-10
1.61278e-14
-5.19034e-13
2.6136e-10
2.57175e-14
-5.19557e-13
2.61389e-10
3.49619e-14
-5.21569e-13
2.61417e-10
4.31959e-14
-5.23996e-13
2.61445e-10
4.93988e-14
-5.26868e-13
2.6147e-10
5.47714e-14
-5.31304e-13
2.61488e-10
5.90636e-14
-5.36522e-13
2.61498e-10
6.2834e-14
-5.41112e-13
2.615e-10
6.53999e-14
-5.44509e-13
2.61492e-10
6.67373e-14
-5.46593e-13
2.61473e-10
6.66661e-14
-5.47694e-13
2.61443e-10
6.54046e-14
-5.48466e-13
2.61402e-10
6.35722e-14
-5.4895e-13
2.61349e-10
6.14151e-14
-5.4883e-13
2.61288e-10
5.94969e-14
-5.4718e-13
2.61221e-10
5.64946e-14
-5.42475e-13
2.61151e-10
5.20471e-14
-5.34021e-13
2.61077e-10
4.48109e-14
-5.23956e-13
2.60998e-10
3.63444e-14
-5.14241e-13
2.6091e-10
2.6807e-14
-5.07237e-13
2.60813e-10
1.90898e-14
-5.04753e-13
2.60702e-10
1.53502e-14
-5.07531e-13
2.6058e-10
1.79134e-14
-5.14371e-13
2.60448e-10
2.84285e-14
-5.24098e-13
2.60311e-10
4.86927e-14
-5.35517e-13
2.60174e-10
7.77972e-14
-5.46371e-13
2.60045e-10
1.15182e-13
-5.54717e-13
2.59934e-10
1.57945e-13
-5.59745e-13
2.59848e-10
2.05247e-13
-5.60559e-13
2.59795e-10
2.53914e-13
-5.56323e-13
2.59777e-10
3.02533e-13
-5.46561e-13
2.59792e-10
3.48439e-13
-5.3185e-13
2.59837e-10
3.89944e-13
-5.13182e-13
2.59896e-10
4.24914e-13
-4.92119e-13
2.59943e-10
4.51352e-13
-4.71068e-13
2.59923e-10
4.67598e-13
-4.52551e-13
2.59726e-10
4.71423e-13
-4.38914e-13
2.59144e-10
4.61315e-13
-4.32098e-13
2.57769e-10
4.37057e-13
-4.33837e-13
2.54868e-10
4.02626e-13
-4.44572e-13
2.49215e-10
3.67532e-13
-4.61957e-13
2.39026e-10
3.30643e-13
-4.58694e-13
2.22239e-10
2.81811e-13
-4.11678e-13
1.97565e-10
2.00664e-13
-3.11067e-13
1.65909e-10
9.8514e-14
-2.11408e-13
1.24913e-10
-9.93207e-14
6.29532e-11
-2.32937e-13
-1.75402e-13
1.23075e-10
-4.77072e-13
-3.72835e-13
2.4325e-10
-7.08858e-13
-5.80147e-13
3.35588e-10
-8.99447e-13
-8.44178e-13
4.38648e-10
-1.05788e-12
-9.63308e-13
5.23177e-10
-1.1851e-12
-9.73934e-13
5.78861e-10
-1.28207e-12
-9.33093e-13
6.11287e-10
-1.33846e-12
-9.07892e-13
6.28438e-10
-1.34954e-12
-9.09723e-13
6.36817e-10
-1.32046e-12
-9.35311e-13
6.40631e-10
-1.2571e-12
-9.78162e-13
6.42229e-10
-1.16821e-12
-1.02982e-12
6.42825e-10
-1.06352e-12
-1.07665e-12
6.43027e-10
-9.56802e-13
-1.10516e-12
6.43121e-10
-8.52835e-13
-1.11722e-12
6.43226e-10
-7.52956e-13
-1.11618e-12
6.4339e-10
-6.60133e-13
-1.10127e-12
6.43623e-10
-5.74449e-13
-1.07638e-12
6.43903e-10
-5.00632e-13
-1.04577e-12
6.44196e-10
-4.38859e-13
-1.01356e-12
6.44472e-10
-3.93736e-13
-9.82732e-13
6.44718e-10
-3.63821e-13
-9.56513e-13
6.4493e-10
-3.47733e-13
-9.38376e-13
6.45106e-10
-3.4057e-13
-9.30089e-13
6.45244e-10
-3.38215e-13
-9.2904e-13
6.45346e-10
-3.3907e-13
-9.31982e-13
6.4541e-10
-3.41501e-13
-9.37858e-13
6.45429e-10
-3.44347e-13
-9.45767e-13
6.45402e-10
-3.47872e-13
-9.55727e-13
6.4533e-10
-3.48801e-13
-9.69601e-13
6.45217e-10
-3.46317e-13
-9.9066e-13
6.45072e-10
-3.34593e-13
-1.02284e-12
6.44901e-10
-3.11624e-13
-1.06369e-12
6.44724e-10
-2.80355e-13
-1.10423e-12
6.44564e-10
-2.4274e-13
-1.13333e-12
6.44435e-10
-2.06589e-13
-1.14899e-12
6.44343e-10
-1.69672e-13
-1.15524e-12
6.44287e-10
-1.34651e-13
-1.15509e-12
6.44255e-10
-9.91542e-14
-1.15208e-12
6.44233e-10
-6.31991e-14
-1.15015e-12
6.44213e-10
-2.4722e-14
-1.15039e-12
6.442e-10
1.54729e-14
-1.15122e-12
6.44205e-10
5.70426e-14
-1.15329e-12
6.44232e-10
9.98762e-14
-1.1581e-12
6.44281e-10
1.40943e-13
-1.16296e-12
6.44353e-10
1.76526e-13
-1.16799e-12
6.44443e-10
2.08131e-13
-1.17751e-12
6.44538e-10
2.3488e-13
-1.1885e-12
6.44626e-10
2.5724e-13
-1.19731e-12
6.44701e-10
2.74122e-13
-1.20283e-12
6.4475e-10
2.8506e-13
-1.20458e-12
6.44765e-10
2.9005e-13
-1.20394e-12
6.44741e-10
2.90079e-13
-1.20304e-12
6.44675e-10
2.87306e-13
-1.20255e-12
6.44571e-10
2.83718e-13
-1.20152e-12
6.44436e-10
2.81159e-13
-1.19813e-12
6.44284e-10
2.77425e-13
-1.18721e-12
6.44133e-10
2.70129e-13
-1.16565e-12
6.43988e-10
2.56742e-13
-1.14003e-12
6.43845e-10
2.40466e-13
-1.1159e-12
6.43697e-10
2.22363e-13
-1.09928e-12
6.43533e-10
2.09451e-13
-1.09619e-12
6.43344e-10
2.07943e-13
-1.1087e-12
6.43134e-10
2.23021e-13
-1.13206e-12
6.42915e-10
2.57942e-13
-1.1609e-12
6.42694e-10
3.1621e-13
-1.1929e-12
6.42478e-10
3.9581e-13
-1.22123e-12
6.42277e-10
4.94302e-13
-1.24164e-12
6.42101e-10
6.05649e-13
-1.25278e-12
6.41962e-10
7.28096e-13
-1.25445e-12
6.41879e-10
8.5599e-13
-1.24455e-12
6.41871e-10
9.86605e-13
-1.22189e-12
6.41943e-10
1.11471e-12
-1.18692e-12
6.42088e-10
1.2359e-12
-1.14113e-12
6.42271e-10
1.34509e-12
-1.08823e-12
6.42419e-10
1.43615e-12
-1.03338e-12
6.42386e-10
1.5028e-12
-9.82545e-13
6.41884e-10
1.53538e-12
-9.40692e-13
6.40319e-10
1.52293e-12
-9.12572e-13
6.36487e-10
1.45469e-12
-9.03361e-13
6.28047e-10
1.33114e-12
-9.19682e-13
6.10816e-10
1.17235e-12
-9.66679e-13
5.78312e-10
9.80985e-13
-9.65767e-13
5.22598e-10
7.62277e-13
-8.56003e-13
4.38111e-10
5.08859e-13
-5.941e-13
3.35157e-10
2.47264e-13
-3.83899e-13
2.42927e-10
-1.8215e-13
1.22895e-10
-3.68501e-13
-2.15452e-13
1.58262e-10
-8.01585e-13
-4.58311e-13
3.20795e-10
-1.32783e-12
-7.31024e-13
4.7477e-10
-1.88944e-12
-1.13434e-12
7.36393e-10
-2.34196e-12
-1.28013e-12
9.18383e-10
-2.67142e-12
-1.24354e-12
1.02673e-09
-2.8915e-12
-1.13453e-12
1.08487e-09
-2.9932e-12
-1.08664e-12
1.11295e-09
-2.98512e-12
-1.09734e-12
1.12542e-09
-2.89388e-12
-1.14372e-12
1.13051e-09
-2.74321e-12
-1.21222e-12
1.13229e-09
-2.55395e-12
-1.29248e-12
1.13267e-09
-2.34597e-12
-1.36615e-12
1.13258e-09
-2.14205e-12
-1.4089e-12
1.13249e-09
-1.94834e-12
-1.42532e-12
1.1326e-09
-1.76419e-12
-1.42137e-12
1.13293e-09
-1.5912e-12
-1.39475e-12
1.13346e-09
-1.42736e-12
-1.3572e-12
1.13403e-09
-1.27756e-12
-1.31414e-12
1.13453e-09
-1.14501e-12
-1.26914e-12
1.13489e-09
-1.03852e-12
-1.22534e-12
1.13513e-09
-9.59313e-13
-1.18725e-12
1.13529e-09
-9.04113e-13
-1.16094e-12
1.13543e-09
-8.63604e-13
-1.15111e-12
1.13557e-09
-8.30479e-13
-1.15151e-12
1.1357e-09
-8.0386e-13
-1.15579e-12
1.13578e-09
-7.81567e-13
-1.1624e-12
1.13577e-09
-7.62792e-13
-1.16977e-12
1.13565e-09
-7.47146e-13
-1.17756e-12
1.13543e-09
-7.30136e-13
-1.18969e-12
1.13511e-09
-7.10501e-13
-1.21198e-12
1.13472e-09
-6.80507e-13
-1.25295e-12
1.13429e-09
-6.36712e-13
-1.31604e-12
1.13385e-09
-5.80136e-13
-1.38909e-12
1.13345e-09
-5.17149e-13
-1.44356e-12
1.13314e-09
-4.5802e-13
-1.47373e-12
1.13294e-09
-3.97933e-13
-1.48955e-12
1.13282e-09
-3.36267e-13
-1.49467e-12
1.13274e-09
-2.69608e-13
-1.49406e-12
1.13265e-09
-1.95993e-13
-1.49646e-12
1.13251e-09
-1.10857e-13
-1.50455e-12
1.13234e-09
-1.59454e-14
-1.51116e-12
1.1322e-09
8.7684e-14
-1.5164e-12
1.13215e-09
1.98851e-13
-1.52453e-12
1.13223e-09
3.07905e-13
-1.5299e-12
1.13243e-09
4.06091e-13
-1.53505e-12
1.13272e-09
4.93283e-13
-1.54829e-12
1.13307e-09
5.67668e-13
-1.5621e-12
1.13343e-09
6.28988e-13
-1.57083e-12
1.13375e-09
6.76915e-13
-1.57466e-12
1.13397e-09
7.09925e-13
-1.5713e-12
1.13408e-09
7.28087e-13
-1.56351e-12
1.1341e-09
7.33706e-13
-1.55677e-12
1.13403e-09
7.31499e-13
-1.55221e-12
1.13389e-09
7.26895e-13
-1.54862e-12
1.13367e-09
7.25087e-13
-1.54474e-12
1.13338e-09
7.24455e-13
-1.53039e-12
1.13306e-09
7.19374e-13
-1.49823e-12
1.13275e-09
7.06508e-13
-1.46091e-12
1.13247e-09
6.89113e-13
-1.42609e-12
1.13223e-09
6.69212e-13
-1.40264e-12
1.13199e-09
6.58403e-13
-1.40293e-12
1.13176e-09
6.69762e-13
-1.43267e-12
1.13153e-09
7.1051e-13
-1.47808e-12
1.13132e-09
7.84284e-13
-1.52618e-12
1.13116e-09
8.97675e-13
-1.57709e-12
1.13107e-09
1.04811e-12
-1.61887e-12
1.13103e-09
1.22836e-12
-1.64484e-12
1.13098e-09
1.42956e-12
-1.65519e-12
1.13092e-09
1.64895e-12
-1.65316e-12
1.1309e-09
1.88119e-12
-1.63721e-12
1.13101e-09
2.12341e-12
-1.60524e-12
1.13129e-09
2.36868e-12
-1.55511e-12
1.13175e-09
2.60934e-12
-1.48719e-12
1.13232e-09
2.83686e-12
-1.40684e-12
1.13288e-09
3.04036e-12
-1.32166e-12
1.13318e-09
3.20702e-12
-1.24009e-12
1.13283e-09
3.31558e-12
-1.1691e-12
1.13096e-09
3.33493e-12
-1.11552e-12
1.12567e-09
3.22506e-12
-1.08773e-12
1.11287e-09
2.96099e-12
-1.10512e-12
1.08437e-09
2.5729e-12
-1.2205e-12
1.02589e-09
2.05384e-12
-1.26929e-12
9.17371e-10
1.42868e-12
-1.1375e-12
7.35443e-10
8.56422e-13
-7.40653e-13
4.74158e-10
3.91902e-13
-4.67299e-13
3.20373e-10
-2.21458e-13
1.58034e-10
-4.99278e-13
-2.06686e-13
1.78953e-10
-1.13169e-12
-4.44172e-13
3.74326e-10
-1.95127e-12
-7.19767e-13
5.77308e-10
-2.84647e-12
-1.1254e-12
9.29206e-10
-3.49133e-12
-1.20779e-12
1.13874e-09
-3.87858e-12
-1.07735e-12
1.23776e-09
-4.08574e-12
-8.87411e-13
1.27825e-09
-4.12773e-12
-8.33898e-13
1.29316e-09
-4.03625e-12
-8.58372e-13
1.29827e-09
-3.86466e-12
-9.0978e-13
1.2997e-09
-3.64413e-12
-9.79103e-13
1.29972e-09
-3.39306e-12
-1.06192e-12
1.29915e-09
-3.12719e-12
-1.14416e-12
1.29839e-09
-2.86971e-12
-1.19289e-12
1.29782e-09
-2.6301e-12
-1.21095e-12
1.29778e-09
-2.40862e-12
-1.20376e-12
1.29823e-09
-2.20403e-12
-1.1697e-12
1.29887e-09
-2.00676e-12
-1.13385e-12
1.29938e-09
-1.8168e-12
-1.09748e-12
1.29963e-09
-1.64002e-12
-1.05825e-12
1.2996e-09
-1.49026e-12
-1.01814e-12
1.29936e-09
-1.37565e-12
-9.80337e-13
1.29908e-09
-1.29258e-12
-9.50863e-13
1.29894e-09
-1.22428e-12
-9.39735e-13
1.29905e-09
-1.16376e-12
-9.37138e-13
1.29925e-09
-1.11322e-12
-9.3626e-13
1.29939e-09
-1.07045e-12
-9.37871e-13
1.29943e-09
-1.03352e-12
-9.39923e-13
1.29933e-09
-1.00097e-12
-9.4014e-13
1.29907e-09
-9.68487e-13
-9.44105e-13
1.29863e-09
-9.34688e-13
-9.59545e-13
1.29807e-09
-8.9303e-13
-9.96304e-13
1.29747e-09
-8.3487e-13
-1.06885e-12
1.29685e-09
-7.56378e-13
-1.16728e-12
1.29621e-09
-6.74032e-13
-1.23983e-12
1.29563e-09
-6.03295e-13
-1.27706e-12
1.29522e-09
-5.34871e-13
-1.30179e-12
1.29501e-09
-4.61315e-13
-1.315e-12
1.29492e-09
-3.79298e-13
-1.31776e-12
1.29483e-09
-2.85532e-13
-1.32673e-12
1.29465e-09
-1.72845e-13
-1.34712e-12
1.29437e-09
-4.47079e-14
-1.36121e-12
1.29407e-09
9.97031e-14
-1.37114e-12
1.29395e-09
2.59633e-13
-1.38385e-12
1.29412e-09
4.15317e-13
-1.38403e-12
1.29449e-09
5.55136e-13
-1.3832e-12
1.29499e-09
6.79995e-13
-1.39556e-12
1.2956e-09
7.87828e-13
-1.40677e-12
1.29619e-09
8.77831e-13
-1.41002e-12
1.29664e-09
9.51738e-13
-1.40981e-12
1.29688e-09
1.00554e-12
-1.39865e-12
1.29693e-09
1.03719e-12
-1.38021e-12
1.2969e-09
1.0506e-12
-1.36509e-12
1.29687e-09
1.05166e-12
-1.35403e-12
1.29685e-09
1.0464e-12
-1.34646e-12
1.29676e-09
1.0438e-12
-1.34491e-12
1.29651e-09
1.0464e-12
-1.33385e-12
1.29607e-09
1.05008e-12
-1.30364e-12
1.29552e-09
1.04933e-12
-1.27132e-12
1.29495e-09
1.04287e-12
-1.24433e-12
1.29446e-09
1.02947e-12
-1.22826e-12
1.29409e-09
1.02475e-12
-1.23745e-12
1.29389e-09
1.04959e-12
-1.28113e-12
1.29384e-09
1.10858e-12
-1.33595e-12
1.29392e-09
1.20313e-12
-1.38394e-12
1.29418e-09
1.34515e-12
-1.43762e-12
1.29469e-09
1.53045e-12
-1.47994e-12
1.29531e-09
1.74647e-12
-1.49997e-12
1.29583e-09
1.98309e-12
-1.50102e-12
1.29618e-09
2.23908e-12
-1.49168e-12
1.29646e-09
2.51285e-12
-1.47194e-12
1.29684e-09
2.8022e-12
-1.43776e-12
1.29746e-09
3.09996e-12
-1.38374e-12
1.29834e-09
3.39774e-12
-1.30915e-12
1.29934e-09
3.68743e-12
-1.22005e-12
1.30031e-09
3.96014e-12
-1.12519e-12
1.30112e-09
4.20635e-12
-1.03365e-12
1.3016e-09
4.40806e-12
-9.53837e-13
1.30141e-09
4.5311e-12
-8.92084e-13
1.29967e-09
4.50652e-12
-8.45805e-13
1.29398e-09
4.25244e-12
-8.3829e-13
1.27815e-09
3.79942e-12
-1.03929e-12
1.23708e-09
3.07313e-12
-1.18033e-12
1.13769e-09
2.09101e-12
-1.11353e-12
9.28094e-10
1.20595e-12
-7.19704e-13
5.76592e-10
5.29858e-13
-4.47022e-13
3.73848e-10
-2.09705e-13
1.787e-10
-6.09907e-13
-1.5308e-13
1.90931e-10
-1.41952e-12
-3.30834e-13
4.07794e-10
-2.49448e-12
-5.38395e-13
6.41135e-10
-3.63373e-12
-8.33071e-13
1.03888e-09
-4.31659e-12
-8.41092e-13
1.2385e-09
-4.56559e-12
-6.84417e-13
1.30067e-09
-4.56066e-12
-5.52e-13
1.31137e-09
-4.4608e-12
-4.8507e-13
1.31288e-09
-4.2903e-12
-4.87184e-13
1.31293e-09
-4.07897e-12
-5.27005e-13
1.31257e-09
-3.84137e-12
-5.89556e-13
1.31205e-09
-3.58454e-12
-6.67531e-13
1.31141e-09
-3.31572e-12
-7.43795e-13
1.31058e-09
-3.05504e-12
-7.85175e-13
1.30975e-09
-2.81356e-12
-8.02719e-13
1.3096e-09
-2.58877e-12
-8.05167e-13
1.31009e-09
-2.37816e-12
-7.80252e-13
1.31048e-09
-2.17302e-12
-7.53765e-13
1.31057e-09
-1.97549e-12
-7.27996e-13
1.31036e-09
-1.79007e-12
-6.98106e-13
1.30991e-09
-1.62553e-12
-6.68281e-13
1.30927e-09
-1.49278e-12
-6.40544e-13
1.30858e-09
-1.39459e-12
-6.1185e-13
1.30819e-09
-1.31595e-12
-5.88572e-13
1.3083e-09
-1.2481e-12
-5.72364e-13
1.30856e-09
-1.19161e-12
-5.57949e-13
1.30875e-09
-1.14293e-12
-5.4841e-13
1.30887e-09
-1.09922e-12
-5.4227e-13
1.3089e-09
-1.06004e-12
-5.36228e-13
1.30875e-09
-1.02057e-12
-5.41985e-13
1.30838e-09
-9.76872e-13
-5.67926e-13
1.30786e-09
-9.256e-13
-6.16977e-13
1.30735e-09
-8.60453e-13
-6.90468e-13
1.30691e-09
-7.75153e-13
-7.73708e-13
1.30633e-09
-6.88649e-13
-8.3683e-13
1.30547e-09
-6.1685e-13
-8.78756e-13
1.30473e-09
-5.46203e-13
-9.16177e-13
1.30437e-09
-4.69432e-13
-9.40305e-13
1.30421e-09
-3.86988e-13
-9.47315e-13
1.30409e-09
-2.9053e-13
-9.57031e-13
1.30394e-09
-1.69834e-13
-9.85731e-13
1.30367e-09
-3.38051e-14
-1.00504e-12
1.30332e-09
1.16471e-13
-1.01909e-12
1.30317e-09
2.81198e-13
-1.03617e-12
1.30349e-09
4.42083e-13
-1.03378e-12
1.30399e-09
5.8908e-13
-1.02687e-12
1.30456e-09
7.224e-13
-1.03228e-12
1.30526e-09
8.37448e-13
-1.03407e-12
1.3059e-09
9.31227e-13
-1.02844e-12
1.3063e-09
1.0103e-12
-1.02662e-12
1.30646e-09
1.07225e-12
-1.01504e-12
1.30642e-09
1.11354e-12
-9.93726e-13
1.30631e-09
1.13534e-12
-9.64385e-13
1.3063e-09
1.13902e-12
-9.29139e-13
1.30639e-09
1.1306e-12
-9.00219e-13
1.30647e-09
1.12376e-12
-8.91812e-13
1.30637e-09
1.12035e-12
-8.8208e-13
1.30594e-09
1.12038e-12
-8.67454e-13
1.30518e-09
1.1261e-12
-8.70366e-13
1.3043e-09
1.13574e-12
-8.96699e-13
1.30346e-09
1.13933e-12
-9.30445e-13
1.30281e-09
1.14723e-12
-9.59289e-13
1.30253e-09
1.1816e-12
-9.84218e-13
1.30263e-09
1.24926e-12
-1.00906e-12
1.30297e-09
1.3483e-12
-1.02523e-12
1.30362e-09
1.492e-12
-1.06337e-12
1.30471e-09
1.67773e-12
-1.09881e-12
1.30591e-09
1.89487e-12
-1.11752e-12
1.30689e-09
2.13342e-12
-1.12113e-12
1.30756e-09
2.39074e-12
-1.11433e-12
1.30808e-09
2.66619e-12
-1.09453e-12
1.30869e-09
2.95744e-12
-1.0567e-12
1.3096e-09
3.25766e-12
-9.97729e-13
1.31075e-09
3.55966e-12
-9.20236e-13
1.31193e-09
3.85729e-12
-8.30582e-13
1.31299e-09
4.14503e-12
-7.36305e-13
1.31386e-09
4.41794e-12
-6.44565e-13
1.31453e-09
4.66728e-12
-5.63141e-13
1.31497e-09
4.87803e-12
-5.00878e-13
1.31505e-09
5.00884e-12
-4.60284e-13
1.3143e-09
4.98586e-12
-4.88179e-13
1.31134e-09
4.67655e-12
-6.34517e-13
1.30009e-09
3.90451e-12
-7.96033e-13
1.2375e-09
2.66196e-12
-8.03359e-13
1.03774e-09
1.50726e-12
-5.25777e-13
6.40385e-10
6.45183e-13
-3.25332e-13
4.07296e-10
-1.51979e-13
1.90668e-10
-6.85997e-13
-6.74314e-14
1.97451e-10
-1.61792e-12
-1.44403e-13
4.26412e-10
-2.85646e-12
-2.37304e-13
6.75853e-10
-4.11015e-12
-3.64479e-13
1.09423e-09
-4.71372e-12
-3.51958e-13
1.27742e-09
-4.8132e-12
-2.61984e-13
1.31157e-09
-4.70524e-12
-2.30789e-13
1.31124e-09
-4.54358e-12
-1.69323e-13
1.31094e-09
-4.33694e-12
-1.56093e-13
1.31086e-09
-4.10359e-12
-1.70477e-13
1.31061e-09
-3.86062e-12
-2.10624e-13
1.31019e-09
-3.61011e-12
-2.78644e-13
1.30971e-09
-3.35485e-12
-3.45377e-13
1.30907e-09
-3.11109e-12
-3.73618e-13
1.30833e-09
-2.88502e-12
-3.88585e-13
1.30818e-09
-2.66319e-12
-4.13104e-13
1.30856e-09
-2.44723e-12
-4.05395e-13
1.30873e-09
-2.23511e-12
-3.88061e-13
1.30863e-09
-2.03011e-12
-3.76756e-13
1.30833e-09
-1.83728e-12
-3.61354e-13
1.30783e-09
-1.66572e-12
-3.39579e-13
1.30719e-09
-1.52916e-12
-3.15308e-13
1.30651e-09
-1.42977e-12
-2.85369e-13
1.30611e-09
-1.35269e-12
-2.57414e-13
1.30616e-09
-1.28167e-12
-2.37859e-13
1.30638e-09
-1.21854e-12
-2.14798e-13
1.30652e-09
-1.15925e-12
-1.87433e-13
1.30665e-09
-1.10496e-12
-1.59712e-13
1.30676e-09
-1.06347e-12
-1.37309e-13
1.30664e-09
-1.02192e-12
-1.5361e-13
1.30621e-09
-9.76159e-13
-1.97531e-13
1.30571e-09
-9.23558e-13
-2.579e-13
1.30534e-09
-8.62982e-13
-3.26445e-13
1.30518e-09
-7.85037e-13
-3.85974e-13
1.30485e-09
-6.99034e-13
-4.35359e-13
1.30403e-09
-6.21655e-13
-4.95779e-13
1.30316e-09
-5.4317e-13
-5.50022e-13
1.30276e-09
-4.59017e-13
-5.88187e-13
1.30257e-09
-3.75438e-13
-6.1076e-13
1.30235e-09
-2.80041e-13
-6.21482e-13
1.30215e-09
-1.52351e-13
-6.40972e-13
1.30193e-09
-1.40209e-14
-6.49358e-13
1.30156e-09
1.31685e-13
-6.5625e-13
1.30139e-09
2.90303e-13
-6.74123e-13
1.30173e-09
4.44366e-13
-6.72564e-13
1.30216e-09
5.87369e-13
-6.66342e-13
1.30264e-09
7.24079e-13
-6.75184e-13
1.30339e-09
8.45521e-13
-6.80579e-13
1.30411e-09
9.43473e-13
-6.78824e-13
1.30456e-09
1.02971e-12
-6.78903e-13
1.30479e-09
1.1008e-12
-6.67258e-13
1.30479e-09
1.15328e-12
-6.43272e-13
1.30469e-09
1.18505e-12
-5.96999e-13
1.30466e-09
1.19277e-12
-5.34163e-13
1.30469e-09
1.18194e-12
-4.70388e-13
1.30474e-09
1.1728e-12
-4.33267e-13
1.3047e-09
1.15911e-12
-4.0877e-13
1.30429e-09
1.15355e-12
-4.3023e-13
1.30345e-09
1.16464e-12
-4.9324e-13
1.30256e-09
1.18404e-12
-5.72702e-13
1.30182e-09
1.19134e-12
-6.47885e-13
1.30123e-09
1.20216e-12
-6.92255e-13
1.30094e-09
1.24197e-12
-7.07584e-13
1.30097e-09
1.31785e-12
-7.08749e-13
1.30121e-09
1.41601e-12
-6.96156e-13
1.30171e-09
1.5573e-12
-6.88195e-13
1.30286e-09
1.73943e-12
-6.88195e-13
1.30425e-09
1.95349e-12
-7.00825e-13
1.30533e-09
2.18797e-12
-7.14489e-13
1.30601e-09
2.4372e-12
-7.17591e-13
1.30652e-09
2.7006e-12
-7.00731e-13
1.30714e-09
2.97897e-12
-6.58555e-13
1.30806e-09
3.26781e-12
-5.90414e-13
1.30923e-09
3.56228e-12
-5.0904e-13
1.31042e-09
3.8584e-12
-4.24755e-13
1.31147e-09
4.15306e-12
-3.41808e-13
1.31231e-09
4.44478e-12
-2.62264e-13
1.31291e-09
4.72791e-12
-1.90935e-13
1.3132e-09
4.98471e-12
-1.39532e-13
1.31301e-09
5.15877e-12
-1.25501e-13
1.31197e-09
5.26289e-12
-1.7239e-13
1.31084e-09
5.10938e-12
-1.951e-13
1.31077e-09
4.40544e-12
-2.93427e-13
1.27635e-09
3.03855e-12
-3.19384e-13
1.0931e-09
1.7123e-12
-2.12214e-13
6.75116e-10
7.23402e-13
-1.30447e-13
4.25922e-10
-6.21428e-14
1.9719e-10
-7.23695e-13
3.57922e-14
2.00479e-10
-1.71554e-12
8.18293e-14
4.34939e-10
-3.0263e-12
1.24022e-13
6.91152e-10
-4.31328e-12
1.863e-13
1.11689e-09
-4.85611e-12
2.00977e-13
1.29076e-09
-4.84932e-12
1.87279e-13
1.31482e-09
-4.71995e-12
1.55045e-13
1.31277e-09
-4.51571e-12
1.45108e-13
1.31098e-09
-4.29619e-12
1.5096e-13
1.30962e-09
-4.07803e-12
1.48596e-13
1.30872e-09
-3.86012e-12
1.26764e-13
1.30823e-09
-3.62942e-12
8.2599e-14
1.30801e-09
-3.37806e-12
3.89136e-14
1.30756e-09
-3.12341e-12
2.82686e-14
1.3068e-09
-2.89286e-12
2.77168e-14
1.30669e-09
-2.66523e-12
-2.87166e-14
1.30726e-09
-2.44514e-12
-6.63503e-14
1.30727e-09
-2.23243e-12
-8.95249e-14
1.30678e-09
-2.03221e-12
-9.80035e-14
1.30627e-09
-1.8444e-12
-9.67182e-14
1.30585e-09
-1.6686e-12
-8.21813e-14
1.30554e-09
-1.52045e-12
-5.58689e-14
1.30517e-09
-1.41259e-12
-2.61383e-14
1.30478e-09
-1.33201e-12
-1.07493e-14
1.30452e-09
-1.26668e-12
1.55347e-14
1.30445e-09
-1.21242e-12
5.92242e-14
1.30442e-09
-1.16316e-12
1.10498e-13
1.30441e-09
-1.12408e-12
1.54632e-13
1.30439e-09
-1.09671e-12
1.76947e-13
1.30426e-09
-1.06467e-12
1.60523e-13
1.30432e-09
-1.02305e-12
1.13876e-13
1.30453e-09
-9.71487e-13
6.6965e-14
1.30487e-09
-9.11431e-13
3.0131e-14
1.30516e-09
-8.1099e-13
-5.41987e-15
1.30464e-09
-6.98813e-13
-6.22257e-14
1.30322e-09
-6.13971e-13
-1.55519e-13
1.30217e-09
-5.4099e-13
-2.39088e-13
1.3018e-09
-4.61427e-13
-3.03726e-13
1.30138e-09
-3.76464e-13
-3.44943e-13
1.30071e-09
-2.7331e-13
-3.57077e-13
1.30016e-09
-1.44764e-13
-3.65318e-13
1.29975e-09
-5.38032e-15
-3.70923e-13
1.29925e-09
1.38722e-13
-3.68084e-13
1.29915e-09
3.00425e-13
-3.73628e-13
1.29971e-09
4.59558e-13
-3.82654e-13
1.30027e-09
6.07832e-13
-3.90162e-13
1.3006e-09
7.47148e-13
-3.96367e-13
1.30121e-09
8.68566e-13
-3.91927e-13
1.30205e-09
9.69862e-13
-3.85248e-13
1.30284e-09
1.05817e-12
-3.8221e-13
1.30367e-09
1.13349e-12
-3.68868e-13
1.30437e-09
1.19065e-12
-3.4423e-13
1.30471e-09
1.2194e-12
-2.82287e-13
1.30449e-09
1.2213e-12
-1.91902e-13
1.3038e-09
1.20955e-12
-8.96728e-14
1.3031e-09
1.18952e-12
-1.71725e-14
1.30254e-09
1.15727e-12
6.76145e-15
1.30181e-09
1.1457e-12
-3.97618e-14
1.3014e-09
1.14645e-12
-1.40056e-13
1.30174e-09
1.159e-12
-2.47263e-13
1.30254e-09
1.17602e-12
-3.47437e-13
1.30296e-09
1.20675e-12
-4.09621e-13
1.30279e-09
1.27496e-12
-4.35785e-13
1.30213e-09
1.35953e-12
-4.41585e-13
1.30109e-09
1.45514e-12
-4.21573e-13
1.30031e-09
1.58376e-12
-3.88845e-13
1.30054e-09
1.75674e-12
-3.55229e-13
1.30156e-09
1.97274e-12
-3.30808e-13
1.30285e-09
2.21593e-12
-3.2299e-13
1.304e-09
2.47883e-12
-3.27829e-13
1.30491e-09
2.75244e-12
-3.14337e-13
1.30568e-09
3.03205e-12
-2.72403e-13
1.30651e-09
3.31063e-12
-1.90822e-13
1.30749e-09
3.58949e-12
-9.44489e-14
1.30856e-09
3.87161e-12
-8.42853e-15
1.30957e-09
4.15693e-12
6.18312e-14
1.3104e-09
4.44315e-12
1.2098e-13
1.31095e-09
4.71682e-12
1.6704e-13
1.3111e-09
4.94466e-12
1.93127e-13
1.31083e-09
5.12507e-12
1.87226e-13
1.31063e-09
5.23044e-12
1.71994e-13
1.31157e-09
5.19833e-12
2.16036e-13
1.31355e-09
4.58769e-12
2.41504e-13
1.28959e-09
3.20049e-12
2.30957e-13
1.1158e-09
1.80718e-12
1.5429e-13
6.90462e-10
7.60213e-13
1.0095e-13
4.34477e-10
4.39407e-14
2.00229e-10
-7.23782e-13
1.42863e-13
2.01081e-10
-1.71652e-12
3.15982e-13
4.3626e-10
-3.02449e-12
4.93976e-13
6.92902e-10
-4.29891e-12
7.43996e-13
1.11885e-09
-4.8244e-12
7.55225e-13
1.29187e-09
-4.80723e-12
6.33199e-13
1.31531e-09
-4.67826e-12
5.46799e-13
1.31332e-09
-4.4742e-12
4.84088e-13
1.31155e-09
-4.24357e-12
4.66749e-13
1.30987e-09
-4.02081e-12
4.59476e-13
1.30841e-09
-3.81498e-12
4.52052e-13
1.30747e-09
-3.59788e-12
4.38741e-13
1.30697e-09
-3.34722e-12
4.21843e-13
1.30608e-09
-3.09573e-12
4.19497e-13
1.3047e-09
-2.88704e-12
4.21903e-13
1.30422e-09
-2.67508e-12
3.63066e-13
1.30567e-09
-2.46167e-12
2.9101e-13
1.3067e-09
-2.24508e-12
2.27774e-13
1.30673e-09
-2.02089e-12
2.13065e-13
1.30661e-09
-1.81013e-12
2.11062e-13
1.30632e-09
-1.62708e-12
2.18959e-13
1.30587e-09
-1.48327e-12
2.36577e-13
1.30537e-09
-1.38587e-12
2.40245e-13
1.30492e-09
-1.31319e-12
2.21289e-13
1.30489e-09
-1.25915e-12
2.29011e-13
1.30548e-09
-1.21113e-12
2.58137e-13
1.306e-09
-1.17213e-12
3.19485e-13
1.30576e-09
-1.15914e-12
3.93573e-13
1.30476e-09
-1.12645e-12
4.38584e-13
1.3038e-09
-1.0898e-12
4.50182e-13
1.3041e-09
-1.04546e-12
4.39654e-13
1.3048e-09
-9.9278e-13
4.2427e-13
1.30534e-09
-9.37725e-13
4.10379e-13
1.30572e-09
-8.43214e-13
3.84701e-13
1.30523e-09
-7.48623e-13
3.17562e-13
1.30433e-09
-6.83235e-13
2.12564e-13
1.30438e-09
-6.08078e-13
1.07678e-13
1.30469e-09
-5.15562e-13
2.73072e-14
1.30451e-09
-4.16038e-13
-3.5642e-14
1.30364e-09
-2.83253e-13
-7.72016e-14
1.30225e-09
-1.29282e-13
-9.98571e-14
1.30048e-09
9.88194e-15
-1.1533e-13
1.2989e-09
1.52243e-13
-1.17913e-13
1.29841e-09
3.12785e-13
-1.11302e-13
1.29904e-09
4.76607e-13
-1.2743e-13
1.2997e-09
6.31959e-13
-1.42165e-13
1.3001e-09
7.85307e-13
-1.36347e-13
1.30108e-09
9.36438e-13
-1.14454e-13
1.30283e-09
1.05984e-12
-9.25374e-14
1.30466e-09
1.15156e-12
-7.20045e-14
1.30604e-09
1.21491e-12
-4.20957e-14
1.30691e-09
1.25236e-12
-1.11234e-14
1.30741e-09
1.25479e-12
6.86268e-14
1.30709e-09
1.22934e-12
1.7507e-13
1.30583e-09
1.20543e-12
2.80895e-13
1.30405e-09
1.17361e-12
3.51814e-13
1.30217e-09
1.14865e-12
3.62134e-13
1.30079e-09
1.13226e-12
3.20353e-13
1.30118e-09
1.09733e-12
2.33202e-13
1.30298e-09
1.08292e-12
1.25708e-13
1.3046e-09
1.10376e-12
7.27899e-15
1.30538e-09
1.15573e-12
-6.35947e-14
1.30528e-09
1.24025e-12
-1.07019e-13
1.30447e-09
1.34796e-12
-1.4465e-13
1.30289e-09
1.46289e-12
-1.5897e-13
1.30115e-09
1.59488e-12
-1.36078e-13
1.30023e-09
1.75392e-12
-9.5435e-14
1.30021e-09
1.96205e-12
-4.68622e-14
1.30085e-09
2.21031e-12
4.95295e-15
1.30196e-09
2.49958e-12
3.72981e-14
1.3032e-09
2.79977e-12
7.4925e-14
1.30432e-09
3.09587e-12
1.09285e-13
1.30527e-09
3.36969e-12
1.95623e-13
1.30598e-09
3.62708e-12
3.04561e-13
1.30665e-09
3.88232e-12
3.94161e-13
1.30738e-09
4.14317e-12
4.51123e-13
1.30808e-09
4.40202e-12
4.9373e-13
1.30867e-09
4.6405e-12
5.12354e-13
1.3091e-09
4.85169e-12
5.0565e-13
1.30954e-09
5.03412e-12
4.86346e-13
1.31047e-09
5.14451e-12
5.29125e-13
1.31212e-09
5.13819e-12
6.3194e-13
1.31414e-09
4.55364e-12
7.76567e-13
1.29074e-09
3.18749e-12
7.81645e-13
1.11784e-09
1.80285e-12
5.24591e-13
6.92286e-10
7.58351e-13
3.37318e-13
4.35843e-10
1.52551e-13
2.00849e-10
-6.87954e-13
2.41168e-13
1.99654e-10
-1.62535e-12
5.28146e-13
4.31155e-10
-2.86076e-12
8.23991e-13
6.82022e-10
-4.08512e-12
1.23868e-12
1.10108e-09
-4.64168e-12
1.25791e-12
1.28145e-09
-4.70764e-12
1.05138e-12
1.31335e-09
-4.59311e-12
8.74502e-13
1.31273e-09
-4.42003e-12
8.23177e-13
1.31193e-09
-4.20277e-12
8.15477e-13
1.31081e-09
-3.9787e-12
8.16048e-13
1.30942e-09
-3.76176e-12
8.15951e-13
1.30812e-09
-3.52487e-12
8.12424e-13
1.3069e-09
-3.27082e-12
7.98968e-13
1.30515e-09
-3.05248e-12
7.78956e-13
1.30279e-09
-2.86251e-12
7.42977e-13
1.30151e-09
-2.67557e-12
7.08086e-13
1.30345e-09
-2.43827e-12
6.50716e-13
1.30632e-09
-2.19976e-12
5.84257e-13
1.3075e-09
-1.97008e-12
5.60719e-13
1.30734e-09
-1.7509e-12
5.4834e-13
1.30683e-09
-1.56128e-12
5.40223e-13
1.30623e-09
-1.42143e-12
5.33287e-13
1.30562e-09
-1.33418e-12
5.00466e-13
1.30533e-09
-1.28143e-12
4.64732e-13
1.30627e-09
-1.23102e-12
4.57535e-13
1.30811e-09
-1.17973e-12
4.80094e-13
1.3092e-09
-1.15451e-12
5.56638e-13
1.30875e-09
-1.165e-12
6.51354e-13
1.30693e-09
-1.14963e-12
7.09698e-13
1.30495e-09
-1.10963e-12
7.63153e-13
1.30494e-09
-1.0574e-12
7.86718e-13
1.30566e-09
-9.90125e-13
7.89215e-13
1.30615e-09
-9.25729e-13
7.84247e-13
1.30633e-09
-8.48412e-13
7.64052e-13
1.30562e-09
-8.03455e-13
6.94328e-13
1.30501e-09
-7.71818e-13
5.96429e-13
1.30583e-09
-7.00852e-13
4.79321e-13
1.30661e-09
-5.94452e-13
3.9992e-13
1.30673e-09
-4.68551e-13
3.4974e-13
1.30633e-09
-3.1311e-13
2.97197e-13
1.3052e-09
-1.32724e-13
2.38017e-13
1.30304e-09
2.82491e-14
1.84621e-13
1.30054e-09
1.79458e-13
1.61617e-13
1.29915e-09
3.33015e-13
1.7673e-13
1.29938e-09
5.00926e-13
1.60808e-13
1.30023e-09
6.76463e-13
1.50483e-13
1.30113e-09
8.57256e-13
1.73616e-13
1.30282e-09
1.02972e-12
2.14308e-13
1.30514e-09
1.16702e-12
2.43467e-13
1.30697e-09
1.27267e-12
2.53618e-13
1.30788e-09
1.3402e-12
2.9777e-13
1.30847e-09
1.35852e-12
3.46765e-13
1.30929e-09
1.32442e-12
4.57289e-13
1.309e-09
1.26057e-12
5.97387e-13
1.30746e-09
1.19741e-12
7.11225e-13
1.30524e-09
1.13912e-12
7.57739e-13
1.30286e-09
1.1006e-12
7.30103e-13
1.30121e-09
1.06407e-12
7.14527e-13
1.30186e-09
1.00061e-12
6.51039e-13
1.30409e-09
9.6033e-13
5.13871e-13
1.30585e-09
9.65479e-13
3.55599e-13
1.30683e-09
1.03184e-12
2.63009e-13
1.30669e-09
1.1401e-12
2.08708e-13
1.30597e-09
1.27653e-12
1.64763e-13
1.30453e-09
1.42254e-12
1.30154e-13
1.30253e-09
1.57681e-12
1.27406e-13
1.30101e-09
1.75567e-12
1.54767e-13
1.30051e-09
1.97337e-12
2.01508e-13
1.30062e-09
2.22142e-12
2.74108e-13
1.30099e-09
2.5103e-12
3.46617e-13
1.30148e-09
2.8204e-12
4.21886e-13
1.30226e-09
3.13597e-12
4.80686e-13
1.30376e-09
3.41188e-12
5.67563e-13
1.30466e-09
3.64904e-12
6.63256e-13
1.30498e-09
3.87003e-12
7.36955e-13
1.3053e-09
4.09766e-12
7.75432e-13
1.30588e-09
4.32806e-12
8.19763e-13
1.30675e-09
4.55658e-12
8.35572e-13
1.30803e-09
4.76478e-12
8.19784e-13
1.30947e-09
4.92452e-12
8.09087e-13
1.31078e-09
5.02745e-12
8.54385e-13
1.31174e-09
4.94428e-12
1.04768e-12
1.31237e-09
4.32389e-12
1.27241e-12
1.28047e-09
3.0124e-12
1.27138e-12
1.10024e-09
1.70544e-12
8.53599e-13
6.81515e-10
7.20058e-13
5.49861e-13
4.308e-10
2.51434e-13
1.99446e-10
-6.17846e-13
3.18922e-13
1.96192e-10
-1.44329e-12
6.89189e-13
4.18737e-10
-2.52577e-12
1.06031e-12
6.54832e-10
-3.64081e-12
1.58479e-12
1.05375e-09
-4.276e-12
1.67264e-12
1.2481e-09
-4.4848e-12
1.48793e-12
1.3049e-09
-4.46417e-12
1.25171e-12
1.31309e-09
-4.32984e-12
1.18671e-12
1.3133e-09