/*--------------------------------*- C++ -*----------------------------------*\
| =========                 |                                                 |
| \\      /  F ield         | OpenFOAM: The Open Source CFD Toolbox           |
|  \\    /   O peration     | Version:  2406                                  |
|   \\  /    A nd           | Website:  www.openfoam.com                      |
|    \\/     M anipulation  |                                                 |
\*---------------------------------------------------------------------------*/
FoamFile
{
    version     2.0;
    format      ascii;
    arch        "LSB;label=32;scalar=64";
    class       volVectorField;
    location    "200";
    object      U;
}
// * * * * * * * * * * * * * * * * * * * * * * * * * * * * * * * * * * * * * //

dimensions      [0 1 -1 0 0 0 0];

internalField   nonuniform List<vector> 
46980
(
(-5.2971e-08 -5.83969e-08 8.32215e-05)
(-1.8003e-07 -1.40405e-07 0.000165171)
(-2.90018e-07 -2.04926e-07 0.00021939)
(-3.57554e-07 -2.57856e-07 0.000261245)
(-3.93066e-07 -2.81019e-07 0.000293879)
(-4.20363e-07 -2.8304e-07 0.000316096)
(-4.49609e-07 -2.73686e-07 0.000329599)
(-4.76982e-07 -2.6473e-07 0.000337115)
(-4.93573e-07 -2.59874e-07 0.000340999)
(-4.95316e-07 -2.60934e-07 0.000342871)
(-4.80781e-07 -2.67498e-07 0.000343709)
(-4.51227e-07 -2.77773e-07 0.000344055)
(-4.10891e-07 -2.8841e-07 0.000344189)
(-3.66385e-07 -2.96095e-07 0.000344253)
(-3.22622e-07 -2.99867e-07 0.000344307)
(-2.80089e-07 -2.99602e-07 0.000344377)
(-2.39016e-07 -2.95329e-07 0.000344474)
(-2.00136e-07 -2.87829e-07 0.000344597)
(-1.6534e-07 -2.78679e-07 0.000344738)
(-1.36322e-07 -2.69218e-07 0.000344888)
(-1.14694e-07 -2.60483e-07 0.000345037)
(-1.01584e-07 -2.53135e-07 0.000345178)
(-9.65665e-08 -2.47844e-07 0.000345302)
(-9.77584e-08 -2.44843e-07 0.000345402)
(-1.02588e-07 -2.43654e-07 0.000345478)
(-1.09489e-07 -2.44013e-07 0.000345527)
(-1.17092e-07 -2.45989e-07 0.00034555)
(-1.24443e-07 -2.49755e-07 0.000345548)
(-1.30497e-07 -2.55271e-07 0.000345522)
(-1.34521e-07 -2.62453e-07 0.000345478)
(-1.35158e-07 -2.71334e-07 0.000345418)
(-1.30766e-07 -2.81911e-07 0.000345351)
(-1.20138e-07 -2.92994e-07 0.000345286)
(-1.05005e-07 -3.02107e-07 0.000345234)
(-8.81424e-08 -3.07514e-07 0.000345197)
(-7.1328e-08 -3.09221e-07 0.000345178)
(-5.55866e-08 -3.08209e-07 0.000345176)
(-4.08138e-08 -3.05545e-07 0.000345187)
(-2.71564e-08 -3.0211e-07 0.000345206)
(-1.40344e-08 -2.98555e-07 0.000345231)
(-1.22247e-09 -2.95253e-07 0.00034526)
(1.16063e-08 -2.9252e-07 0.000345293)
(2.45712e-08 -2.90948e-07 0.000345327)
(3.79977e-08 -2.90943e-07 0.000345362)
(5.13832e-08 -2.9228e-07 0.000345397)
(6.25361e-08 -2.94951e-07 0.000345432)
(7.07513e-08 -2.99043e-07 0.00034546)
(7.65521e-08 -3.03817e-07 0.000345478)
(8.06438e-08 -3.08253e-07 0.000345483)
(8.31543e-08 -3.11829e-07 0.000345475)
(8.41264e-08 -3.14347e-07 0.000345451)
(8.35481e-08 -3.15921e-07 0.00034541)
(8.13869e-08 -3.16835e-07 0.000345351)
(7.8103e-08 -3.17139e-07 0.000345276)
(7.43529e-08 -3.16743e-07 0.000345189)
(7.0762e-08 -3.15475e-07 0.000345094)
(6.67422e-08 -3.1277e-07 0.000344995)
(6.12405e-08 -3.08512e-07 0.00034489)
(5.38587e-08 -3.03276e-07 0.000344779)
(4.47716e-08 -2.97976e-07 0.000344658)
(3.48856e-08 -2.93719e-07 0.000344524)
(2.57689e-08 -2.91534e-07 0.000344375)
(1.97005e-08 -2.91856e-07 0.000344212)
(1.89557e-08 -2.9446e-07 0.000344036)
(2.60678e-08 -2.98983e-07 0.000343851)
(4.38161e-08 -3.0501e-07 0.000343664)
(7.36401e-08 -3.11283e-07 0.000343487)
(1.14662e-07 -3.16632e-07 0.000343331)
(1.64664e-07 -3.20066e-07 0.00034321)
(2.2128e-07 -3.20775e-07 0.000343132)
(2.81659e-07 -3.18222e-07 0.000343104)
(3.4308e-07 -3.12229e-07 0.000343125)
(4.0285e-07 -3.0319e-07 0.000343187)
(4.58669e-07 -2.91949e-07 0.000343272)
(5.08045e-07 -2.79915e-07 0.000343342)
(5.48333e-07 -2.68935e-07 0.000343323)
(5.77012e-07 -2.6078e-07 0.00034307)
(5.91226e-07 -2.56713e-07 0.000342301)
(5.88267e-07 -2.57485e-07 0.000340479)
(5.66449e-07 -2.63368e-07 0.00033663)
(5.2763e-07 -2.73299e-07 0.000329137)
(4.82587e-07 -2.85314e-07 0.000315646)
(4.39081e-07 -2.86097e-07 0.000293446)
(3.89123e-07 -2.64906e-07 0.000260844)
(3.09948e-07 -2.12119e-07 0.000219038)
(1.89886e-07 -1.46139e-07 0.000164892)
(5.51721e-08 -6.13924e-08 8.30673e-05)
(-1.4622e-07 -1.86778e-07 0.000162495)
(-4.46796e-07 -3.97256e-07 0.000321334)
(-7.35897e-07 -5.95508e-07 0.000443375)
(-1.01483e-06 -8.01129e-07 0.000579588)
(-1.22912e-06 -9.09024e-07 0.000691378)
(-1.40194e-06 -9.29265e-07 0.00076508)
(-1.54308e-06 -9.02273e-07 0.000808046)
(-1.64241e-06 -8.80546e-07 0.000830804)
(-1.68483e-06 -8.7739e-07 0.000841943)
(-1.67294e-06 -8.95862e-07 0.000847022)
(-1.61346e-06 -9.32252e-07 0.000849152)
(-1.51522e-06 -9.78536e-07 0.000849946)
(-1.3915e-06 -1.02147e-06 0.000850208)
(-1.26125e-06 -1.04903e-06 0.000850324)
(-1.13674e-06 -1.06127e-06 0.000850447)
(-1.01695e-06 -1.06054e-06 0.000850641)
(-9.00568e-07 -1.04628e-06 0.000850922)
(-7.89569e-07 -1.02058e-06 0.000851264)
(-6.88048e-07 -9.87817e-07 0.000851624)
(-5.99602e-07 -9.52456e-07 0.000851964)
(-5.28262e-07 -9.1777e-07 0.000852267)
(-4.77803e-07 -8.86893e-07 0.00085253)
(-4.47907e-07 -8.63474e-07 0.000852749)
(-4.33049e-07 -8.4966e-07 0.000852919)
(-4.26915e-07 -8.43472e-07 0.000853044)
(-4.26503e-07 -8.43302e-07 0.000853118)
(-4.29517e-07 -8.49025e-07 0.000853132)
(-4.33829e-07 -8.60809e-07 0.000853081)
(-4.37047e-07 -8.7833e-07 0.00085297)
(-4.37079e-07 -9.01669e-07 0.000852809)
(-4.30848e-07 -9.32182e-07 0.000852611)
(-4.13976e-07 -9.70815e-07 0.000852391)
(-3.82817e-07 -1.01276e-06 0.000852177)
(-3.41452e-07 -1.04759e-06 0.000851998)
(-2.97745e-07 -1.06836e-06 0.000851868)
(-2.56125e-07 -1.07557e-06 0.000851787)
(-2.16809e-07 -1.0736e-06 0.000851747)
(-1.78028e-07 -1.06622e-06 0.000851732)
(-1.39067e-07 -1.05662e-06 0.000851723)
(-9.81973e-08 -1.04756e-06 0.000851709)
(-5.43961e-08 -1.04005e-06 0.000851699)
(-7.34997e-09 -1.03462e-06 0.000851707)
(4.3049e-08 -1.03265e-06 0.000851742)
(9.82109e-08 -1.0348e-06 0.000851805)
(1.55877e-07 -1.03861e-06 0.000851901)
(2.07939e-07 -1.04437e-06 0.000852025)
(2.50888e-07 -1.05461e-06 0.000852156)
(2.86151e-07 -1.06738e-06 0.00085228)
(3.14757e-07 -1.07934e-06 0.000852382)
(3.36614e-07 -1.08862e-06 0.000852448)
(3.51735e-07 -1.09457e-06 0.000852464)
(3.59879e-07 -1.09777e-06 0.000852426)
(3.61074e-07 -1.09968e-06 0.000852333)
(3.56945e-07 -1.10059e-06 0.000852186)
(3.50073e-07 -1.09983e-06 0.000851997)
(3.43545e-07 -1.09621e-06 0.000851784)
(3.37398e-07 -1.08651e-06 0.000851569)
(3.28557e-07 -1.06954e-06 0.000851359)
(3.15383e-07 -1.0488e-06 0.000851151)
(2.98573e-07 -1.02853e-06 0.000850939)
(2.80145e-07 -1.0135e-06 0.00085071)
(2.64288e-07 -1.00823e-06 0.000850454)
(2.57091e-07 -1.01448e-06 0.000850173)
(2.63879e-07 -1.03065e-06 0.000849882)
(2.90105e-07 -1.05486e-06 0.000849586)
(3.43162e-07 -1.08517e-06 0.000849289)
(4.26919e-07 -1.11514e-06 0.000849007)
(5.38145e-07 -1.13964e-06 0.000848754)
(6.70858e-07 -1.15542e-06 0.000848553)
(8.1967e-07 -1.16039e-06 0.00084843)
(9.79156e-07 -1.15239e-06 0.000848412)
(1.14388e-06 -1.13064e-06 0.000848507)
(1.30846e-06 -1.09679e-06 0.000848705)
(1.46748e-06 -1.05363e-06 0.00084896)
(1.61453e-06 -1.00508e-06 0.000849171)
(1.7426e-06 -9.56984e-07 0.000849141)
(1.84449e-06 -9.1538e-07 0.000848484)
(1.91063e-06 -8.84748e-07 0.000846409)
(1.92784e-06 -8.68501e-07 0.000841318)
(1.88037e-06 -8.69756e-07 0.000830113)
(1.75631e-06 -8.8923e-07 0.000807262)
(1.57506e-06 -9.23995e-07 0.000764205)
(1.35835e-06 -9.14073e-07 0.000690476)
(1.1021e-06 -8.14773e-07 0.000578763)
(7.88989e-07 -6.11095e-07 0.000442712)
(4.74838e-07 -4.10022e-07 0.000320829)
(1.53755e-07 -1.946e-07 0.00016221)
(-2.26681e-07 -2.71313e-07 0.000208947)
(-7.1931e-07 -5.73398e-07 0.000423794)
(-1.25231e-06 -9.05449e-07 0.000627308)
(-2.04973e-06 -1.39098e-06 0.000973189)
(-2.67695e-06 -1.6037e-06 0.00121401)
(-3.15688e-06 -1.62223e-06 0.00135752)
(-3.50265e-06 -1.55483e-06 0.00143464)
(-3.70785e-06 -1.52907e-06 0.00147195)
(-3.76138e-06 -1.55121e-06 0.00148856)
(-3.69605e-06 -1.61373e-06 0.00149536)
(-3.54203e-06 -1.70759e-06 0.00149774)
(-3.32129e-06 -1.81697e-06 0.00149825)
(-3.05979e-06 -1.91149e-06 0.00149813)
(-2.79831e-06 -1.96332e-06 0.001498)
(-2.56008e-06 -1.98246e-06 0.00149811)
(-2.33351e-06 -1.98175e-06 0.00149853)
(-2.11057e-06 -1.95638e-06 0.00149919)
(-1.89554e-06 -1.90855e-06 0.00149992)
(-1.69434e-06 -1.84596e-06 0.00150057)
(-1.51115e-06 -1.77673e-06 0.00150103)
(-1.35339e-06 -1.70549e-06 0.00150133)
(-1.23203e-06 -1.63772e-06 0.00150153)
(-1.14932e-06 -1.58349e-06 0.00150172)
(-1.09212e-06 -1.55043e-06 0.00150191)
(-1.0485e-06 -1.53257e-06 0.0015021)
(-1.0163e-06 -1.52631e-06 0.00150221)
(-9.93663e-07 -1.53276e-06 0.00150219)
(-9.7716e-07 -1.55322e-06 0.00150202)
(-9.62345e-07 -1.58659e-06 0.00150169)
(-9.4531e-07 -1.63334e-06 0.00150122)
(-9.20842e-07 -1.69776e-06 0.00150067)
(-8.79771e-07 -1.78245e-06 0.00150008)
(-8.13287e-07 -1.87484e-06 0.00149949)
(-7.29553e-07 -1.94877e-06 0.00149899)
(-6.48276e-07 -1.9876e-06 0.00149863)
(-5.78018e-07 -1.99796e-06 0.0014984)
(-5.12175e-07 -1.9938e-06 0.00149828)
(-4.43057e-07 -1.98164e-06 0.00149822)
(-3.68461e-07 -1.96701e-06 0.00149813)
(-2.84601e-07 -1.95637e-06 0.00149796)
(-1.88429e-07 -1.95087e-06 0.00149776)
(-8.06926e-08 -1.94932e-06 0.00149759)
(3.84717e-08 -1.9547e-06 0.00149754)
(1.75187e-07 -1.96737e-06 0.00149764)
(3.23995e-07 -1.97529e-06 0.0014979)
(4.60772e-07 -1.97787e-06 0.00149829)
(5.75451e-07 -1.98992e-06 0.00149875)
(6.73071e-07 -2.00818e-06 0.00149923)
(7.54661e-07 -2.02492e-06 0.00149964)
(8.19611e-07 -2.03707e-06 0.00149993)
(8.68548e-07 -2.04279e-06 0.00150006)
(9.00354e-07 -2.04325e-06 0.00150007)
(9.14367e-07 -2.043e-06 0.00149997)
(9.14047e-07 -2.04349e-06 0.00149978)
(9.05233e-07 -2.0435e-06 0.00149948)
(8.97132e-07 -2.04117e-06 0.00149908)
(8.94305e-07 -2.02551e-06 0.00149864)
(8.88973e-07 -1.98995e-06 0.00149821)
(8.76365e-07 -1.94637e-06 0.00149781)
(8.59044e-07 -1.90448e-06 0.00149746)
(8.39242e-07 -1.87482e-06 0.00149714)
(8.24651e-07 -1.86837e-06 0.00149682)
(8.27208e-07 -1.88908e-06 0.00149653)
(8.54705e-07 -1.93087e-06 0.00149626)
(9.13787e-07 -1.98914e-06 0.00149606)
(1.02045e-06 -2.06171e-06 0.00149594)
(1.18336e-06 -2.12988e-06 0.00149587)
(1.39276e-06 -2.18262e-06 0.00149579)
(1.63601e-06 -2.21583e-06 0.0014957)
(1.90549e-06 -2.22846e-06 0.00149566)
(2.19572e-06 -2.21403e-06 0.0014958)
(2.49951e-06 -2.16903e-06 0.00149619)
(2.80978e-06 -2.09752e-06 0.00149682)
(3.11868e-06 -2.0042e-06 0.00149761)
(3.41495e-06 -1.89653e-06 0.00149836)
(3.68609e-06 -1.78613e-06 0.00149879)
(3.91982e-06 -1.68521e-06 0.00149832)
(4.09824e-06 -1.6014e-06 0.00149582)
(4.19022e-06 -1.53915e-06 0.00148876)
(4.14755e-06 -1.50372e-06 0.0014717)
(3.90847e-06 -1.50975e-06 0.00143384)
(3.49083e-06 -1.59006e-06 0.00135627)
(2.9296e-06 -1.59172e-06 0.00121253)
(2.21748e-06 -1.39837e-06 0.000971793)
(1.34169e-06 -9.1997e-07 0.000626388)
(7.65544e-07 -5.8603e-07 0.000423147)
(2.39288e-07 -2.79488e-07 0.00020859)
(-2.97403e-07 -2.91852e-07 0.000236238)
(-9.87021e-07 -6.25928e-07 0.000494499)
(-1.79168e-06 -1.01071e-06 0.000762813)
(-3.08222e-06 -1.58196e-06 0.0012282)
(-4.04158e-06 -1.74321e-06 0.0015057)
(-4.65805e-06 -1.62381e-06 0.00163707)
(-5.02391e-06 -1.40769e-06 0.00169092)
(-5.17784e-06 -1.29567e-06 0.00171082)
(-5.13356e-06 -1.2902e-06 0.00171772)
(-4.96553e-06 -1.35731e-06 0.00171968)
(-4.72075e-06 -1.47212e-06 0.00171974)
(-4.41515e-06 -1.60696e-06 0.001719)
(-4.06794e-06 -1.71411e-06 0.001718)
(-3.73098e-06 -1.7557e-06 0.00171726)
(-3.43679e-06 -1.76896e-06 0.00171718)
(-3.16209e-06 -1.77721e-06 0.00171774)
(-2.89292e-06 -1.75609e-06 0.00171853)
(-2.63352e-06 -1.70844e-06 0.00171918)
(-2.38564e-06 -1.64548e-06 0.0017195)
(-2.14869e-06 -1.57705e-06 0.00171944)
(-1.93263e-06 -1.50466e-06 0.0017191)
(-1.75959e-06 -1.42922e-06 0.00171871)
(-1.63882e-06 -1.36232e-06 0.00171854)
(-1.54763e-06 -1.31446e-06 0.00171871)
(-1.4693e-06 -1.2788e-06 0.00171901)
(-1.40756e-06 -1.25386e-06 0.00171923)
(-1.36229e-06 -1.24513e-06 0.00171929)
(-1.32807e-06 -1.25626e-06 0.00171915)
(-1.29816e-06 -1.28808e-06 0.00171878)
(-1.26809e-06 -1.3452e-06 0.00171815)
(-1.23149e-06 -1.43167e-06 0.00171734)
(-1.17422e-06 -1.54321e-06 0.00171649)
(-1.08132e-06 -1.65981e-06 0.00171566)
(-9.62771e-07 -1.75099e-06 0.00171485)
(-8.52073e-07 -1.78817e-06 0.00171413)
(-7.67971e-07 -1.79556e-06 0.00171363)
(-6.94088e-07 -1.80055e-06 0.00171338)
(-6.12106e-07 -1.79846e-06 0.00171329)
(-5.19443e-07 -1.79081e-06 0.0017132)
(-4.1168e-07 -1.79197e-06 0.00171298)
(-2.83796e-07 -1.80146e-06 0.00171263)
(-1.39785e-07 -1.81144e-06 0.00171226)
(1.96268e-08 -1.82981e-06 0.00171211)
(2.1228e-07 -1.86135e-06 0.00171232)
(4.30323e-07 -1.87736e-06 0.00171281)
(6.26575e-07 -1.86804e-06 0.00171349)
(7.87345e-07 -1.86745e-06 0.00171429)
(9.27581e-07 -1.87494e-06 0.00171507)
(1.04731e-06 -1.88065e-06 0.00171566)
(1.14593e-06 -1.88587e-06 0.00171596)
(1.22511e-06 -1.8854e-06 0.00171601)
(1.28049e-06 -1.87589e-06 0.00171594)
(1.30913e-06 -1.86193e-06 0.00171589)
(1.31601e-06 -1.84824e-06 0.00171586)
(1.30748e-06 -1.84073e-06 0.00171575)
(1.29651e-06 -1.84291e-06 0.0017154)
(1.29714e-06 -1.83274e-06 0.0017148)
(1.30114e-06 -1.79378e-06 0.00171405)
(1.29985e-06 -1.75771e-06 0.00171327)
(1.29591e-06 -1.73224e-06 0.00171256)
(1.28683e-06 -1.72008e-06 0.00171203)
(1.28168e-06 -1.72706e-06 0.00171175)
(1.29847e-06 -1.7594e-06 0.00171173)
(1.34422e-06 -1.80976e-06 0.00171188)
(1.42179e-06 -1.87448e-06 0.00171226)
(1.55634e-06 -1.96136e-06 0.00171297)
(1.76085e-06 -2.04337e-06 0.00171379)
(2.01611e-06 -2.10362e-06 0.00171448)
(2.30378e-06 -2.13932e-06 0.00171494)
(2.61898e-06 -2.15334e-06 0.00171531)
(2.96153e-06 -2.13817e-06 0.00171582)
(3.32343e-06 -2.08882e-06 0.00171666)
(3.69737e-06 -2.00527e-06 0.00171785)
(4.07559e-06 -1.88935e-06 0.0017192)
(4.44554e-06 -1.7529e-06 0.00172051)
(4.79582e-06 -1.61237e-06 0.00172159)
(5.11881e-06 -1.48347e-06 0.00172222)
(5.40285e-06 -1.37719e-06 0.00172194)
(5.61985e-06 -1.30238e-06 0.00171956)
(5.7083e-06 -1.27392e-06 0.00171188)
(5.5358e-06 -1.34037e-06 0.00169072)
(5.08678e-06 -1.56829e-06 0.00163607)
(4.37936e-06 -1.70679e-06 0.00150419)
(3.31222e-06 -1.56916e-06 0.00122659)
(1.9116e-06 -1.01325e-06 0.000761742)
(1.04755e-06 -6.31593e-07 0.000493769)
(3.13758e-07 -2.96713e-07 0.000235842)
(-3.54122e-07 -2.48284e-07 0.000252019)
(-1.21693e-06 -5.37337e-07 0.000538688)
(-2.2669e-06 -8.73263e-07 0.000847158)
(-3.97784e-06 -1.35708e-06 0.00137333)
(-5.11902e-06 -1.39588e-06 0.00163794)
(-5.62245e-06 -1.14089e-06 0.00172069)
(-5.74279e-06 -8.25931e-07 0.00173502)
(-5.65979e-06 -7.94537e-07 0.00173713)
(-5.48819e-06 -8.51148e-07 0.00173731)
(-5.25225e-06 -9.37065e-07 0.00173687)
(-4.97485e-06 -1.04389e-06 0.0017362)
(-4.65562e-06 -1.15996e-06 0.00173536)
(-4.30202e-06 -1.25827e-06 0.00173429)
(-3.96057e-06 -1.30252e-06 0.00173322)
(-3.66577e-06 -1.31651e-06 0.00173301)
(-3.39062e-06 -1.32e-06 0.00173359)
(-3.11545e-06 -1.30353e-06 0.00173405)
(-2.84543e-06 -1.28272e-06 0.00173413)
(-2.58764e-06 -1.25163e-06 0.00173383)
(-2.34216e-06 -1.20244e-06 0.00173321)
(-2.11261e-06 -1.13648e-06 0.00173235)
(-1.91896e-06 -1.06273e-06 0.00173142)
(-1.77649e-06 -9.94819e-07 0.0017309)
(-1.66891e-06 -9.46076e-07 0.00173108)
(-1.57896e-06 -9.0491e-07 0.00173147)
(-1.50766e-06 -8.70653e-07 0.00173177)
(-1.45374e-06 -8.50151e-07 0.00173194)
(-1.41117e-06 -8.48382e-07 0.00173198)
(-1.37368e-06 -8.67186e-07 0.00173176)
(-1.33626e-06 -9.09484e-07 0.0017312)
(-1.29042e-06 -9.77103e-07 0.00173044)
(-1.22196e-06 -1.06996e-06 0.00172969)
(-1.11943e-06 -1.18571e-06 0.0017291)
(-9.95467e-07 -1.30166e-06 0.00172841)
(-8.79949e-07 -1.36787e-06 0.00172736)
(-7.93229e-07 -1.39439e-06 0.0017264)
(-7.16801e-07 -1.41496e-06 0.00172592)
(-6.30388e-07 -1.43287e-06 0.00172572)
(-5.3394e-07 -1.44228e-06 0.00172557)
(-4.21264e-07 -1.45031e-06 0.0017254)
(-2.84601e-07 -1.46539e-06 0.00172509)
(-1.30237e-07 -1.48069e-06 0.00172464)
(3.82289e-08 -1.5021e-06 0.00172445)
(2.34981e-07 -1.53026e-06 0.00172487)
(4.5666e-07 -1.5338e-06 0.00172552)
(6.62089e-07 -1.52021e-06 0.00172627)
(8.33607e-07 -1.51799e-06 0.00172721)
(9.83851e-07 -1.51959e-06 0.00172806)
(1.11108e-06 -1.51788e-06 0.00172858)
(1.21558e-06 -1.51159e-06 0.00172877)
(1.30264e-06 -1.49196e-06 0.0017287)
(1.36972e-06 -1.46441e-06 0.00172852)
(1.41085e-06 -1.44046e-06 0.00172849)
(1.42552e-06 -1.42372e-06 0.00172863)
(1.4177e-06 -1.41251e-06 0.00172875)
(1.40241e-06 -1.4109e-06 0.00172863)
(1.39633e-06 -1.40637e-06 0.00172806)
(1.39391e-06 -1.38078e-06 0.00172702)
(1.39437e-06 -1.353e-06 0.0017258)
(1.40552e-06 -1.33548e-06 0.00172459)
(1.4173e-06 -1.33789e-06 0.00172364)
(1.42983e-06 -1.36028e-06 0.00172324)
(1.45844e-06 -1.40774e-06 0.00172345)
(1.51356e-06 -1.47021e-06 0.001724)
(1.6024e-06 -1.53822e-06 0.00172494)
(1.74474e-06 -1.62073e-06 0.00172644)
(1.95022e-06 -1.69273e-06 0.00172806)
(2.20533e-06 -1.73667e-06 0.00172936)
(2.49465e-06 -1.75437e-06 0.00173023)
(2.81118e-06 -1.75497e-06 0.00173091)
(3.15391e-06 -1.73403e-06 0.00173172)
(3.51706e-06 -1.68496e-06 0.00173295)
(3.89413e-06 -1.60188e-06 0.00173451)
(4.27609e-06 -1.48616e-06 0.0017361)
(4.65189e-06 -1.35065e-06 0.00173751)
(5.01469e-06 -1.21159e-06 0.00173868)
(5.36202e-06 -1.08127e-06 0.00173956)
(5.68952e-06 -9.67912e-07 0.00174013)
(5.98312e-06 -8.7574e-07 0.00174019)
(6.2056e-06 -7.973e-07 0.00173911)
(6.30579e-06 -7.38249e-07 0.00173497)
(6.10683e-06 -1.07453e-06 0.00171985)
(5.51597e-06 -1.3404e-06 0.00163652)
(4.25073e-06 -1.32239e-06 0.00137168)
(2.4071e-06 -8.59978e-07 0.000846037)
(1.28657e-06 -5.32669e-07 0.000537928)
(3.72834e-07 -2.48106e-07 0.000251609)
(-3.92046e-07 -1.53127e-07 0.000260601)
(-1.37619e-06 -3.31245e-07 0.000563263)
(-2.59258e-06 -5.38657e-07 0.000893038)
(-4.56482e-06 -8.25736e-07 0.00144661)
(-5.72494e-06 -8.07943e-07 0.00168964)
(-5.99156e-06 -6.26822e-07 0.00173525)
(-5.95467e-06 -5.43993e-07 0.00173492)
(-5.80055e-06 -4.01126e-07 0.00173458)
(-5.56721e-06 -3.797e-07 0.00173455)
(-5.29521e-06 -4.21468e-07 0.00173425)
(-5.00108e-06 -5.00504e-07 0.00173371)
(-4.67861e-06 -5.99251e-07 0.00173306)
(-4.3337e-06 -6.86603e-07 0.00173225)
(-4.012e-06 -7.20834e-07 0.00173132)
(-3.74833e-06 -7.37759e-07 0.00173112)
(-3.49006e-06 -7.55166e-07 0.00173156)
(-3.21432e-06 -7.40053e-07 0.0017317)
(-2.93506e-06 -7.20109e-07 0.00173152)
(-2.66648e-06 -7.0085e-07 0.00173108)
(-2.40853e-06 -6.75928e-07 0.00173039)
(-2.16128e-06 -6.46077e-07 0.00172954)
(-1.95356e-06 -6.06394e-07 0.00172864)
(-1.80648e-06 -5.46866e-07 0.00172813)
(-1.6965e-06 -4.75832e-07 0.00172826)
(-1.60388e-06 -4.06634e-07 0.00172863)
(-1.53124e-06 -3.45299e-07 0.00172889)
(-1.4768e-06 -3.05075e-07 0.00172913)
(-1.43361e-06 -2.92405e-07 0.0017293)
(-1.39717e-06 -3.05802e-07 0.00172908)
(-1.36142e-06 -3.55794e-07 0.00172839)
(-1.31021e-06 -4.47258e-07 0.00172758)
(-1.23228e-06 -5.64132e-07 0.00172699)
(-1.12191e-06 -6.80385e-07 0.00172675)
(-9.97209e-07 -7.6119e-07 0.0017264)
(-8.79081e-07 -8.00256e-07 0.00172542)
(-7.91784e-07 -8.27762e-07 0.00172432)
(-7.14589e-07 -8.72847e-07 0.00172381)
(-6.21405e-07 -9.07867e-07 0.00172357)
(-5.18129e-07 -9.19161e-07 0.00172326)
(-4.00708e-07 -9.27785e-07 0.00172303)
(-2.58421e-07 -9.57247e-07 0.00172284)
(-1.02926e-07 -9.78515e-07 0.00172238)
(5.63581e-08 -1.00245e-06 0.00172217)
(2.4491e-07 -1.03613e-06 0.0017226)
(4.6402e-07 -1.03778e-06 0.00172313)
(6.67675e-07 -1.01758e-06 0.00172378)
(8.36912e-07 -1.0085e-06 0.0017248)
(9.89087e-07 -1.00144e-06 0.00172576)
(1.12103e-06 -9.9284e-07 0.00172631)
(1.23424e-06 -9.94633e-07 0.00172659)
(1.33299e-06 -9.85689e-07 0.00172656)
(1.41099e-06 -9.6208e-07 0.00172639)
(1.46217e-06 -9.17306e-07 0.00172633)
(1.4881e-06 -8.53431e-07 0.00172639)
(1.48278e-06 -7.97827e-07 0.00172648)
(1.4618e-06 -7.80281e-07 0.00172647)
(1.44923e-06 -7.73011e-07 0.00172593)
(1.43626e-06 -7.70788e-07 0.00172476)
(1.43461e-06 -8.17883e-07 0.00172349)
(1.46534e-06 -9.12127e-07 0.00172241)
(1.48829e-06 -1.00052e-06 0.00172154)
(1.4965e-06 -1.04664e-06 0.00172114)
(1.52363e-06 -1.05558e-06 0.00172125)
(1.58689e-06 -1.05961e-06 0.00172167)
(1.68383e-06 -1.05717e-06 0.00172237)
(1.82144e-06 -1.09494e-06 0.00172399)
(2.02063e-06 -1.1459e-06 0.00172587)
(2.27387e-06 -1.18308e-06 0.0017273)
(2.56176e-06 -1.20196e-06 0.00172816)
(2.87329e-06 -1.20494e-06 0.00172881)
(3.20419e-06 -1.18587e-06 0.00172963)
(3.55321e-06 -1.13577e-06 0.00173086)
(3.91905e-06 -1.0511e-06 0.00173245)
(4.29117e-06 -9.38258e-07 0.00173408)
(4.65929e-06 -8.106e-07 0.0017355)
(5.02098e-06 -6.82202e-07 0.00173663)
(5.37971e-06 -5.62703e-07 0.00173743)
(5.73719e-06 -4.60808e-07 0.0017378)
(6.08222e-06 -3.87663e-07 0.0017375)
(6.36553e-06 -3.54977e-07 0.00173598)
(6.54949e-06 -4.43163e-07 0.0017344)
(6.50666e-06 -5.31963e-07 0.00173417)
(6.15958e-06 -7.27403e-07 0.00168811)
(4.86006e-06 -7.67471e-07 0.00144497)
(2.74183e-06 -5.08766e-07 0.000891935)
(1.44968e-06 -3.15571e-07 0.000562512)
(4.11858e-07 -1.47544e-07 0.000260193)
(-4.1022e-07 -2.55061e-08 0.000264583)
(-1.45563e-06 -5.1241e-08 0.000574517)
(-2.75289e-06 -8.86949e-08 0.000913259)
(-4.84054e-06 -1.35721e-07 0.00147664)
(-5.95178e-06 -1.16806e-07 0.00170741)
(-6.1114e-06 -6.86527e-08 0.0017397)
(-5.98555e-06 -1.02368e-07 0.00173702)
(-5.77312e-06 -5.68537e-08 0.00173467)
(-5.50646e-06 -1.34965e-08 0.0017329)
(-5.25232e-06 -3.64157e-09 0.00173169)
(-4.98365e-06 -3.93791e-08 0.00173102)
(-4.68273e-06 -1.11258e-07 0.00173076)
(-4.34798e-06 -1.70665e-07 0.00173027)
(-4.02478e-06 -1.82649e-07 0.00172937)
(-3.76057e-06 -1.99504e-07 0.00172924)
(-3.50346e-06 -2.52454e-07 0.0017299)
(-3.22868e-06 -2.76184e-07 0.00172977)
(-2.94492e-06 -2.87901e-07 0.001729)
(-2.67347e-06 -3.08643e-07 0.00172825)
(-2.42638e-06 -3.16995e-07 0.00172765)
(-2.17882e-06 -3.0354e-07 0.00172722)
(-1.9485e-06 -2.70926e-07 0.00172675)
(-1.77195e-06 -2.13987e-07 0.00172626)
(-1.64736e-06 -1.42038e-07 0.00172598)
(-1.56357e-06 -7.84826e-08 0.001726)
(-1.50937e-06 -1.65037e-08 0.00172607)
(-1.47716e-06 4.60913e-08 0.00172615)
(-1.45461e-06 9.96577e-08 0.00172615)
(-1.44045e-06 1.25703e-07 0.00172588)
(-1.42655e-06 6.24491e-08 0.00172582)
(-1.38925e-06 -4.10669e-08 0.00172595)
(-1.31157e-06 -1.44686e-07 0.00172629)
(-1.18057e-06 -2.2952e-07 0.00172666)
(-1.02717e-06 -2.81185e-07 0.00172611)
(-8.77414e-07 -3.3497e-07 0.00172435)
(-7.77515e-07 -4.4004e-07 0.00172298)
(-7.11729e-07 -5.31383e-07 0.00172248)
(-6.19541e-07 -5.90718e-07 0.00172191)
(-5.08894e-07 -6.15064e-07 0.00172101)
(-3.87615e-07 -5.96653e-07 0.00172033)
(-2.47606e-07 -5.89199e-07 0.0017199)
(-9.22472e-08 -5.82976e-07 0.00171929)
(5.45642e-08 -5.94987e-07 0.00171915)
(2.45172e-07 -6.32102e-07 0.00171989)
(4.8448e-07 -6.38401e-07 0.00172057)
(7.02882e-07 -6.1975e-07 0.001721)
(8.70285e-07 -6.16205e-07 0.00172188)
(1.01724e-06 -6.24267e-07 0.00172301)
(1.14067e-06 -6.44247e-07 0.00172403)
(1.25658e-06 -6.74291e-07 0.0017251)
(1.36314e-06 -6.8068e-07 0.00172601)
(1.4505e-06 -6.60663e-07 0.00172642)
(1.51126e-06 -5.89467e-07 0.00172611)
(1.53947e-06 -4.71741e-07 0.00172519)
(1.52625e-06 -3.30753e-07 0.0017243)
(1.49195e-06 -2.36987e-07 0.00172363)
(1.45898e-06 -1.87238e-07 0.00172262)
(1.42499e-06 -2.53314e-07 0.00172203)
(1.39962e-06 -4.09273e-07 0.00172241)
(1.42295e-06 -5.59056e-07 0.00172342)
(1.45198e-06 -6.8361e-07 0.00172394)
(1.48949e-06 -7.58374e-07 0.0017237)
(1.55582e-06 -7.79612e-07 0.00172288)
(1.65093e-06 -7.63118e-07 0.00172151)
(1.74436e-06 -7.12418e-07 0.00172047)
(1.84861e-06 -6.65825e-07 0.00172081)
(2.03936e-06 -6.4546e-07 0.00172219)
(2.29405e-06 -6.54573e-07 0.00172394)
(2.5863e-06 -6.7917e-07 0.00172548)
(2.91078e-06 -6.93713e-07 0.00172665)
(3.26042e-06 -6.80006e-07 0.00172766)
(3.62053e-06 -6.25857e-07 0.00172876)
(3.98459e-06 -5.29924e-07 0.00173009)
(4.34577e-06 -4.139e-07 0.00173157)
(4.69682e-06 -2.95476e-07 0.00173298)
(5.03936e-06 -1.84783e-07 0.00173412)
(5.38204e-06 -8.6167e-08 0.00173485)
(5.72828e-06 -4.83495e-09 0.00173501)
(6.05509e-06 4.67887e-08 0.00173455)
(6.29821e-06 4.19423e-08 0.00173418)
(6.4715e-06 -4.91048e-08 0.00173536)
(6.56013e-06 -7.98686e-10 0.00173793)
(6.34559e-06 -4.39372e-08 0.00170576)
(5.11785e-06 -7.10459e-08 0.00147505)
(2.89638e-06 -4.91808e-08 0.000912219)
(1.52712e-06 -2.75366e-08 0.000573805)
(4.29756e-07 -1.5648e-08 0.000264191)
(-4.09337e-07 1.16063e-07 0.000265381)
(-1.45672e-06 2.59773e-07 0.000576266)
(-2.75446e-06 4.05744e-07 0.000915579)
(-4.83612e-06 6.13111e-07 0.00147924)
(-5.92855e-06 6.30172e-07 0.00170888)
(-6.0701e-06 5.45943e-07 0.00174035)
(-5.92991e-06 4.99586e-07 0.00173775)
(-5.72942e-06 4.19643e-07 0.00173545)
(-5.45565e-06 3.80679e-07 0.00173323)
(-5.17488e-06 3.64465e-07 0.00173125)
(-4.90311e-06 3.58541e-07 0.00172999)
(-4.6162e-06 3.48494e-07 0.00172939)
(-4.28557e-06 3.48365e-07 0.00172839)
(-3.9718e-06 3.72801e-07 0.00172669)
(-3.74519e-06 3.84221e-07 0.00172602)
(-3.52379e-06 2.784e-07 0.00172791)
(-3.26267e-06 1.71842e-07 0.0017291)
(-2.99521e-06 7.99797e-08 0.00172898)
(-2.69291e-06 4.49192e-08 0.00172875)
(-2.39789e-06 4.09894e-08 0.0017283)
(-2.12816e-06 5.94661e-08 0.00172768)
(-1.89509e-06 9.33392e-08 0.001727)
(-1.71831e-06 1.23668e-07 0.00172641)
(-1.60481e-06 1.12203e-07 0.00172644)
(-1.53999e-06 1.13159e-07 0.00172737)
(-1.49549e-06 1.46453e-07 0.00172821)
(-1.47161e-06 2.15494e-07 0.00172796)
(-1.46332e-06 3.05315e-07 0.00172656)
(-1.47663e-06 3.76481e-07 0.0017252)
(-1.47272e-06 3.80666e-07 0.00172553)
(-1.4274e-06 3.49155e-07 0.00172634)
(-1.34995e-06 3.20681e-07 0.00172695)
(-1.2132e-06 2.93536e-07 0.0017274)
(-1.05507e-06 2.49033e-07 0.00172687)
(-9.28132e-07 1.5377e-07 0.0017258)
(-8.5365e-07 -1.12037e-09 0.00172591)
(-7.86698e-07 -1.25227e-07 0.00172638)
(-6.9025e-07 -2.22214e-07 0.00172619)
(-5.64264e-07 -3.05276e-07 0.00172504)
(-4.00656e-07 -3.48259e-07 0.00172325)
(-2.12901e-07 -3.49536e-07 0.00172096)
(-5.24226e-08 -3.39545e-07 0.0017188)
(6.40839e-08 -3.15029e-07 0.00171811)
(2.56433e-07 -3.09732e-07 0.00171895)
(5.10738e-07 -3.242e-07 0.00171979)
(7.32614e-07 -3.45921e-07 0.00172034)
(8.94216e-07 -3.63634e-07 0.00172174)
(1.06211e-06 -3.6711e-07 0.00172417)
(1.23184e-06 -3.58095e-07 0.0017266)
(1.37125e-06 -3.31512e-07 0.00172838)
(1.46636e-06 -2.9401e-07 0.00172946)
(1.53122e-06 -2.54663e-07 0.00173007)
(1.56801e-06 -1.69106e-07 0.00172961)
(1.55987e-06 -5.92346e-08 0.00172792)
(1.53206e-06 7.07484e-08 0.00172558)
(1.49336e-06 1.87575e-07 0.00172305)
(1.45408e-06 2.32572e-07 0.00172116)
(1.38887e-06 1.57684e-07 0.0017217)
(1.37181e-06 2.84828e-08 0.00172406)
(1.34515e-06 -8.06127e-08 0.00172621)
(1.35576e-06 -2.02359e-07 0.00172724)
(1.40856e-06 -2.92819e-07 0.00172715)
(1.49788e-06 -3.57899e-07 0.00172609)
(1.61305e-06 -4.03718e-07 0.00172398)
(1.74062e-06 -4.10913e-07 0.00172158)
(1.87866e-06 -3.62447e-07 0.00172031)
(2.04868e-06 -2.95959e-07 0.00172027)
(2.28554e-06 -2.31817e-07 0.00172116)
(2.58184e-06 -1.85752e-07 0.00172268)
(2.92286e-06 -1.68688e-07 0.00172439)
(3.29945e-06 -1.46557e-07 0.00172588)
(3.6859e-06 -1.03328e-07 0.00172711)
(4.05953e-06 -2.01029e-09 0.00172804)
(4.41107e-06 1.28759e-07 0.00172896)
(4.73846e-06 2.50476e-07 0.00173)
(5.0482e-06 3.46603e-07 0.001731)
(5.35306e-06 4.17875e-07 0.00173181)
(5.65578e-06 4.59266e-07 0.00173231)
(5.92589e-06 4.63642e-07 0.0017328)
(6.17328e-06 4.30067e-07 0.00173396)
(6.3612e-06 4.80053e-07 0.0017361)
(6.47947e-06 5.52148e-07 0.00173874)
(6.29233e-06 6.61742e-07 0.0017073)
(5.09729e-06 6.62898e-07 0.00147776)
(2.89002e-06 4.45119e-07 0.000914636)
(1.52443e-06 2.86854e-07 0.000575614)
(4.2815e-07 1.28326e-07 0.000265014)
(-3.90482e-07 2.5452e-07 0.000263517)
(-1.38297e-06 5.61808e-07 0.000569543)
(-2.60485e-06 8.80009e-07 0.000901213)
(-4.56742e-06 1.32304e-06 0.00145571)
(-5.68187e-06 1.32612e-06 0.001695)
(-5.9002e-06 1.09141e-06 0.0017376)
(-5.82096e-06 9.40358e-07 0.00173687)
(-5.65593e-06 8.34269e-07 0.0017359)
(-5.40526e-06 8.10837e-07 0.00173448)
(-5.127e-06 8.06176e-07 0.00173262)
(-4.82985e-06 8.12395e-07 0.00173089)
(-4.50624e-06 8.32089e-07 0.00172939)
(-4.16772e-06 8.34291e-07 0.00172724)
(-3.87526e-06 8.29735e-07 0.00172417)
(-3.70485e-06 8.42397e-07 0.00172238)
(-3.54791e-06 7.59004e-07 0.00172496)
(-3.27461e-06 6.43988e-07 0.00172871)
(-2.96659e-06 5.41722e-07 0.00173009)
(-2.64176e-06 5.16248e-07 0.00172977)
(-2.33088e-06 5.07005e-07 0.00172902)
(-2.0532e-06 5.0388e-07 0.00172817)
(-1.81599e-06 5.07552e-07 0.00172732)
(-1.64773e-06 4.8295e-07 0.00172692)
(-1.559e-06 4.15734e-07 0.00172825)
(-1.49129e-06 3.99584e-07 0.00173089)
(-1.45828e-06 4.23113e-07 0.0017325)
(-1.45257e-06 4.88548e-07 0.00173192)
(-1.47072e-06 5.80809e-07 0.00172942)
(-1.48371e-06 6.66171e-07 0.00172668)
(-1.4905e-06 7.4094e-07 0.00172664)
(-1.44076e-06 7.80161e-07 0.00172752)
(-1.34998e-06 7.95822e-07 0.00172806)
(-1.20208e-06 7.98696e-07 0.00172824)
(-1.04659e-06 7.68573e-07 0.00172737)
(-9.77104e-07 6.76815e-07 0.00172663)
(-9.57221e-07 5.53407e-07 0.00172777)
(-9.05115e-07 4.06782e-07 0.0017289)
(-7.98913e-07 2.97175e-07 0.00172915)
(-6.51465e-07 2.14199e-07 0.00172872)
(-4.59269e-07 1.27373e-07 0.00172731)
(-2.3607e-07 4.3855e-08 0.00172451)
(-3.34461e-08 -8.57185e-09 0.0017211)
(1.2151e-07 -6.2775e-09 0.00171916)
(2.90258e-07 3.2769e-08 0.00171944)
(5.31756e-07 9.47825e-09 0.00172058)
(7.63966e-07 -2.3472e-08 0.00172185)
(9.58664e-07 -1.70042e-08 0.00172421)
(1.16361e-06 2.9678e-08 0.00172736)
(1.35849e-06 8.18308e-08 0.0017297)
(1.51504e-06 1.17096e-07 0.00173078)
(1.61557e-06 1.5137e-07 0.00173147)
(1.6687e-06 1.71123e-07 0.00173249)
(1.67381e-06 2.71326e-07 0.00173206)
(1.61467e-06 4.23366e-07 0.00173003)
(1.53601e-06 5.48958e-07 0.00172711)
(1.45836e-06 6.12524e-07 0.00172392)
(1.39783e-06 6.08591e-07 0.00172168)
(1.33732e-06 5.84634e-07 0.00172258)
(1.2835e-06 5.16671e-07 0.00172552)
(1.22064e-06 3.7717e-07 0.00172781)
(1.19935e-06 2.15081e-07 0.00172911)
(1.24286e-06 1.31986e-07 0.00172898)
(1.35225e-06 7.56836e-08 0.00172808)
(1.49787e-06 1.06969e-08 0.0017262)